ITEM: TIMESTEP
25000
ITEM: NUMBER OF ATOMS
1034
ITEM: BOX BOUNDS ff ff pp
0.0000000000000000e+00 4.4000000000000004e+00
-1.0000000000000000e+01 1.0000000000000000e+01
-2.0000000000000000e-02 2.0000000000000000e-02
ITEM: ATOMS id type x y vx vy fx fy c_den c_phase
1509 2 2 -10 0 0 0 0 1 5
1510 2 2.2 -10 0 0 0 0 1 5
1511 2 2.4 -10 0 0 0 0 1 5
1543 2 2 -9.8 0 0 0 0 1 5
1544 2 2.2 -9.8 0 0 0 0 1 5
1545 2 2.4 -9.8 0 0 0 0 1 5
1577 2 2 -9.6 0 0 0 0 1 5
1578 2 2.2 -9.6 0 0 0 0 1 5
1579 2 2.4 -9.6 0 0 0 0 1 5
1512 2 2.6 -10 0 0 0 0 1 5
1513 2 2.8 -10 0 0 0 0 1 5
1546 2 2.6 -9.8 0 0 0 0 1 5
1547 2 2.8 -9.8 0 0 0 0 1 5
1580 2 2.6 -9.6 0 0 0 0 1 5
1581 2 2.8 -9.6 0 0 0 0 1 5
1645 2 2 -9.2 0 0 0 0 1 5
1646 2 2.2 -9.2 0 0 0 0 1 5
1647 2 2.4 -9.2 0 0 0 0 1 5
1613 2 2.4 -9.4 0 0 0 0 1 5
1612 2 2.2 -9.4 0 0 0 0 1 5
1611 2 2 -9.4 0 0 0 0 1 5
1648 2 2.6 -9.2 0 0 0 0 1 5
1649 2 2.8 -9.2 0 0 0 0 1 5
1615 2 2.8 -9.4 0 0 0 0 1 5
1614 2 2.6 -9.4 0 0 0 0 1 5
1679 2 2 -9 0 0 0 0 1 5
1680 2 2.2 -9 0 0 0 0 1 5
1681 2 2.4 -9 0 0 0 0 1 5
1713 2 2 -8.8 0 0 0 0 1 5
1714 2 2.2 -8.8 0 0 0 0 1 5
1715 2 2.4 -8.8 0 0 0 0 1 5
1682 2 2.6 -9 0 0 0 0 1 5
1683 2 2.8 -9 0 0 0 0 1 5
1716 2 2.6 -8.8 0 0 0 0 1 5
1717 2 2.8 -8.8 0 0 0 0 1 5
1783 2 2.4 -8.4 0 0 0 0 1 5
1782 2 2.2 -8.4 0 0 0 0 1 5
1781 2 2 -8.4 0 0 0 0 1 5
1747 2 2 -8.6 0 0 0 0 1 5
1748 2 2.2 -8.6 0 0 0 0 1 5
1749 2 2.4 -8.6 0 0 0 0 1 5
1785 2 2.8 -8.4 0 0 0 0 1 5
1784 2 2.6 -8.4 0 0 0 0 1 5
1750 2 2.6 -8.6 0 0 0 0 1 5
1751 2 2.8 -8.6 0 0 0 0 1 5
1851 2 2.4 -8 0 0 0 0 1 5
1850 2 2.2 -8 0 0 0 0 1 5
1849 2 2 -8 0 0 0 0 1 5
1817 2 2.4 -8.2 0 0 0 0 1 5
1816 2 2.2 -8.2 0 0 0 0 1 5
1815 2 2 -8.2 0 0 0 0 1 5
1853 2 2.8 -8 0 0 0 0 1 5
1852 2 2.6 -8 0 0 0 0 1 5
1819 2 2.8 -8.2 0 0 0 0 1 5
1818 2 2.6 -8.2 0 0 0 0 1 5
1953 2 2.4 -7.4 0 0 0 0 0.998684 5
1952 2 2.2 -7.4 0 0 0 0 0.999807 5
1951 2 2 -7.4 0 0 0 0 1.01114 5
1919 2 2.4 -7.6 0 0 0 0 1 5
1918 2 2.2 -7.6 0 0 0 0 1 5
1917 2 2 -7.6 0 0 0 0 1 5
1885 2 2.4 -7.8 0 0 0 0 1 5
1884 2 2.2 -7.8 0 0 0 0 1 5
1883 2 2 -7.8 0 0 0 0 1 5
1955 2 2.8 -7.4 0 0 0 0 1.00628 5
1954 2 2.6 -7.4 0 0 0 0 0.99963 5
1921 2 2.8 -7.6 0 0 0 0 1 5
1920 2 2.6 -7.6 0 0 0 0 1 5
1887 2 2.8 -7.8 0 0 0 0 1 5
1886 2 2.6 -7.8 0 0 0 0 1 5
2021 2 2.4 -7 0 0 0 0 1.00032 5
2020 2 2.2 -7 0 0 0 0 1.00311 5
2019 2 2 -7 0 0 0 0 1.00996 5
1987 2 2.4 -7.2 0 0 0 0 0.999826 5
1986 2 2.2 -7.2 0 0 0 0 1.00206 5
1985 2 2 -7.2 0 0 0 0 1.01123 5
2023 2 2.8 -7 0 0 0 0 1.00039 5
2022 2 2.6 -7 0 0 0 0 1.00006 5
1989 2 2.8 -7.2 0 0 0 0 1.00117 5
1988 2 2.6 -7.2 0 0 0 0 1.00002 5
3176 1 2.2102 -6.56879 0.02 0 0.000183589 0.000120761 1 2
3175 1 2.00952 -6.55978 0.02 0 -0.00156046 -0.000374202 1 2
3174 1 2.19659 -6.75993 0.02 0 -0.00326116 -0.000133882 1 2
3178 1 2.59369 -6.75328 0.02 0 -0.00294498 -0.000460921 1 2
3180 1 2.61781 -6.5679 0.02 0 0.000138752 0.00047979 1 2
3177 1 2.39703 -6.73563 0.02 0 -0.00197426 -0.000260621 1 2
3179 1 2.41296 -6.55292 0.02 0 0.000257398 0.000431322 1 2
3181 1 2.79193 -6.73604 0.02 0 -0.00250398 -0.00055587 1 2
3121 1 2.10375 -1.31101 0.02 0 0 0 1 2
3183 1 2.83091 -6.56301 0.02 0 0.000124209 0.000562447 1 2
3120 1 2.28799 -1.58116 0.02 0 0 0 1 2
3082 1 2.83232 -0.443907 0.02 0 0 0 1 2
3086 1 2.484 -0.578435 0.02 0 0 0 1 2
3189 1 2.03962 -6.37653 0.02 0 0.000239147 3.92873e-05 1 2
3191 1 2.24012 -6.37813 0.02 0 0.000275896 0.000210699 1 2
3190 1 2.18905 -6.18885 0.02 0 4.19148e-05 3.00602e-05 1 2
3193 1 2.63232 -6.38198 0.02 0 9.66093e-05 0.000151708 1 2
3195 1 2.59377 -6.19033 0.02 0 6.87729e-06 1.27057e-05 1 2
3192 1 2.43588 -6.36413 0.02 0 0.000108414 0.000146634 1 2
3194 1 2.39193 -6.1736 0.02 0 8.64966e-06 1.30418e-05 1 2
3198 1 2.79557 -6.1913 0.02 0 6.67437e-06 1.29597e-05 1 2
3118 1 2.29912 -1.38137 0.02 0 0 0 1 2
3122 1 2.10029 -1.52107 0.02 0 0 0 1 2
3196 1 2.8288 -6.38001 0.02 0 9.3642e-05 0.000140855 1 2
3088 1 2.48723 -0.792507 0.02 0 0 0 1 2
3084 1 2.66799 -0.639103 0.02 0 0 0 1 2
3204 1 2.17618 -5.99591 0.02 0 5.31254e-07 3.69174e-07 1 2
3205 1 2.18869 -5.79861 0.02 0 2.27446e-10 2.45625e-10 1 2
3209 1 2.59768 -5.81115 0.02 0 3.44105e-11 1.18325e-10 1 2
3207 1 2.60125 -6.00104 0.02 0 4.83558e-08 1.31544e-07 1 2
3206 1 2.38362 -5.9881 0.02 0 3.50584e-08 8.23534e-08 1 2
3208 1 2.39129 -5.80404 0.02 0 4.97449e-11 1.54489e-10 1 2
3212 1 2.80421 -5.81359 0.02 0 6.52684e-11 2.12152e-10 1 2
3210 1 2.81454 -6.003 0.02 0 4.25827e-08 1.09213e-07 1 2
3102 1 2.69984 -1.25907 0.02 0 0 0 1 2
3087 1 2.29431 -0.565154 0.02 0 0 0 1 2
3075 1 2.05649 -0.314496 0.02 0 0 0 1 2
3067 1 2.95031 -0.0379554 0.02 0 0 0 1 2
3085 1 2.68079 -0.849358 0.02 0 0 0 1 2
3123 1 2.08126 -1.73196 0.02 0 0 0 1 2
3220 1 2.03726 -5.38583 0.02 0 0 0 1 2
3221 1 2.21352 -5.59899 0.02 0 0 0 1 2
3222 1 2.2384 -5.40026 0.02 0 0 0 1 2
3219 1 2.01721 -5.58567 0.02 0 0 0 1 2
3224 1 2.62603 -5.61815 0.02 0 0 0 1 2
3226 1 2.64637 -5.42229 0.02 0 0 0 1 2
3231 1 2.68982 -5.22877 0.02 0 0 0 1 2
3223 1 2.41659 -5.61945 0.02 0 0 0 1 2
3225 1 2.43976 -5.43257 0.02 0 0 0 1 2
3227 1 2.47921 -5.24437 0.02 0 0 0 1 2
3105 1 2.50185 -1.20089 0.02 0 0 0 1 2
3103 1 2.49516 -0.998532 0.02 0 0 0 1 2
3228 1 2.83497 -5.62533 0.02 0 0 0 1 2
3229 1 2.84843 -5.43244 0.02 0 0 0 1 2
3232 1 2.90066 -5.24749 0.02 0 0 0 1 2
3090 1 2.09759 -0.511003 0.02 0 0 0 1 2
3116 1 2.68551 -1.65068 0.02 0 0 0 1 2
3239 1 2.2754 -5.20589 0.02 0 0 0 1 2
3240 1 2.28198 -5.00972 0.02 0 0 0 1 2
3241 1 2.32395 -4.82157 0.02 0 0 0 1 2
3237 1 2.07716 -4.99345 0.02 0 0 0 1 2
3238 1 2.11037 -4.80394 0.02 0 0 0 1 2
3236 1 2.07244 -5.18892 0.02 0 0 0 1 2
3244 1 2.68924 -5.03441 0.02 0 0 0 1 2
3243 1 2.53024 -4.85503 0.02 0 0 0 1 2
3242 1 2.48323 -5.04988 0.02 0 0 0 1 2
3245 1 2.73898 -4.84467 0.02 0 0 0 1 2
3247 1 2.94463 -4.87165 0.02 0 0 0 1 2
3107 1 2.09887 -0.907127 0.02 0 0 0 1 2
3246 1 2.8971 -5.05747 0.02 0 0 0 1 2
3098 1 2.87299 -0.878956 0.02 0 0 0 1 2
3254 1 2.28774 -4.62864 0.02 0 0 0 1 2
3255 1 2.27455 -4.43154 0.02 0 0 0 1 2
3253 1 2.07256 -4.41611 0.02 0 0 0 1 2
3252 1 2.0802 -4.61251 0.02 0 0 0 1 2
3259 1 2.67546 -4.45609 0.02 0 0 0 1 2
3256 1 2.4944 -4.65561 0.02 0 0 0 1 2
3257 1 2.4739 -4.4529 0.02 0 0 0 1 2
3258 1 2.69696 -4.65095 0.02 0 0 0 1 2
3108 1 2.1051 -1.10797 0.02 0 0 0 1 2
3099 1 2.88572 -1.09013 0.02 0 0 0 1 2
3261 1 2.88118 -4.47854 0.02 0 0 0 1 2
3260 1 2.904 -4.67538 0.02 0 0 0 1 2
3064 1 2.76181 -0.00442981 0.02 0 0 0 1 2
3066 1 2.79114 -0.224811 0.02 0 0 0 1 2
3267 1 2.02688 -4.21847 0.02 0 0 0 1 2
3269 1 2.23051 -4.23312 0.02 0 0 0 1 2
3268 1 2.18899 -4.03014 0.02 0 0 0 1 2
3273 1 2.59582 -4.06986 0.02 0 0 0 1 2
3271 1 2.63738 -4.26254 0.02 0 0 0 1 2
3270 1 2.43385 -4.24787 0.02 0 0 0 1 2
3272 1 2.38495 -4.04595 0.02 0 0 0 1 2
3276 1 2.80414 -4.08037 0.02 0 0 0 1 2
3104 1 2.2963 -0.97562 0.02 0 0 0 1 2
3119 1 2.48723 -1.59823 0.02 0 0 0 1 2
3274 1 2.8429 -4.27983 0.02 0 0 0 1 2
3106 1 2.30173 -1.17986 0.02 0 0 0 1 2
3091 1 2.09749 -0.707446 0.02 0 0 0 1 2
3072 1 2.45149 -0.358881 0.02 0 0 0 1 2
3287 1 2.33472 -3.61387 0.02 0 0 0 1 2
3285 1 2.33799 -3.82989 0.02 0 0 0 1 2
3283 1 2.15005 -3.81852 0.02 0 0 0 1 2
3284 1 2.14651 -3.60455 0.02 0 0 0 1 2
3286 1 2.53009 -3.87894 0.02 0 0 0 1 2
3288 1 2.5279 -3.67917 0.02 0 0 0 1 2
3293 1 2.70721 -3.49603 0.02 0 0 0 1 2
3291 1 2.73449 -3.68926 0.02 0 0 0 1 2
3289 1 2.73397 -3.8842 0.02 0 0 0 1 2
3294 1 2.9181 -3.52538 0.02 0 0 0 1 2
3292 1 2.94598 -3.7156 0.02 0 0 0 1 2
3290 1 2.94104 -3.90873 0.02 0 0 0 1 2
3083 1 2.85568 -0.661033 0.02 0 0 0 1 2
3101 1 2.89812 -1.29962 0.02 0 0 0 1 2
3300 1 2.12833 -3.17752 0.02 0 0 0 1 2
3299 1 2.12848 -3.39246 0.02 0 0 0 1 2
3303 1 2.31855 -3.1789 0.02 0 0 0 1 2
3302 1 2.31862 -3.39236 0.02 0 0 0 1 2
3307 1 2.67811 -3.09739 0.02 0 0 0 1 2
3301 1 2.50536 -3.47352 0.02 0 0 0 1 2
3304 1 2.504 -3.2637 0.02 0 0 0 1 2
3305 1 2.70284 -3.30042 0.02 0 0 0 1 2
3306 1 2.91034 -3.33433 0.02 0 0 0 1 2
3089 1 2.2915 -0.771323 0.02 0 0 0 1 2
3308 1 2.87274 -3.13507 0.02 0 0 0 1 2
3100 1 2.69151 -1.05584 0.02 0 0 0 1 2
3070 1 2.41908 -0.140142 0.02 0 0 0 1 2
3173 1 2.1098 -2.96044 0.02 0 0 0 1 2
3172 1 2.11048 -2.75075 0.02 0 0 0 1 2
3170 1 2.30397 -2.96783 0.02 0 0 0 1 2
3169 1 2.30754 -2.76422 0.02 0 0 0 1 2
3171 1 2.49058 -3.04285 0.02 0 0 0 1 2
3168 1 2.49875 -2.82939 0.02 0 0 0 1 2
3167 1 2.50526 -2.61946 0.02 0 0 0 1 2
3164 1 2.6962 -2.69522 0.02 0 0 0 1 2
3166 1 2.6909 -2.89647 0.02 0 0 0 1 2
3113 1 2.90328 -1.5075 0.02 0 0 0 1 2
3115 1 2.88208 -1.71069 0.02 0 0 0 1 2
3165 1 2.8913 -2.93657 0.02 0 0 0 1 2
3163 1 2.89324 -2.73523 0.02 0 0 0 1 2
3069 1 2.60528 -0.199263 0.02 0 0 0 1 2
3068 1 2.64096 -0.420077 0.02 0 0 0 1 2
3073 1 2.25933 -0.356455 0.02 0 0 0 1 2
3156 1 2.10227 -2.34122 0.02 0 0 0 1 2
3154 1 2.3042 -2.36315 0.02 0 0 0 1 2
3155 1 2.31048 -2.56319 0.02 0 0 0 1 2
3157 1 2.1137 -2.54458 0.02 0 0 0 1 2
3149 1 2.69056 -2.28018 0.02 0 0 0 1 2
3153 1 2.50342 -2.41286 0.02 0 0 0 1 2
3152 1 2.50527 -2.20648 0.02 0 0 0 1 2
3151 1 2.69829 -2.49111 0.02 0 0 0 1 2
3150 1 2.89644 -2.53231 0.02 0 0 0 1 2
3114 1 2.70496 -1.457 0.02 0 0 0 1 2
3117 1 2.50301 -1.40049 0.02 0 0 0 1 2
3148 1 2.88163 -2.32488 0.02 0 0 0 1 2
3071 1 2.22737 -0.152625 0.02 0 0 0 1 2
3074 1 2.02822 -0.114362 0.02 0 0 0 1 2
3138 1 2.27666 -1.96891 0.02 0 0 0 1 2
3139 1 2.30555 -2.16607 0.02 0 0 0 1 2
3136 1 2.28357 -1.77545 0.02 0 0 0 1 2
3140 1 2.07706 -1.93796 0.02 0 0 0 1 2
3141 1 2.10094 -2.14214 0.02 0 0 0 1 2
3132 1 2.68707 -1.8504 0.02 0 0 0 1 2
3134 1 2.67264 -2.05429 0.02 0 0 0 1 2
3135 1 2.48821 -1.79973 0.02 0 0 0 1 2
3137 1 2.47801 -2.00032 0.02 0 0 0 1 2
3131 1 2.88125 -1.91765 0.02 0 0 0 1 2
3133 1 2.86025 -2.11851 0.02 0 0 0 1 2
3061 1 2.19255 0.052024 0.02 0 0 0 1 2
3060 1 2.18228 0.259957 0.02 0 0 0 1 2
3064 1 2.56783 0.23308 0.02 0 0 0 1 2
3065 1 2.57447 0.0223507 0.02 0 0 0 1 2
3062 1 2.38406 0.0724965 0.02 0 0 0 1 2
3063 1 2.37608 0.280002 0.02 0 0 0 1 2
3066 1 2.75935 0.211316 0.02 0 0 0 1 2
3069 1 2.76563 0.418928 0.02 0 0 0 1 2
3068 1 2.96086 0.372473 0.02 0 0 0 1 2
3067 1 2.95024 0.169145 0.02 0 0 0 1 2
350 2 2.2 9 0 0 0 0 1 5
349 2 2 9 0 0 0 0 1 5
3075 1 2.16386 0.680704 0.02 0 0 0 1 2
3074 1 2.17028 0.469286 0.02 0 0 0 1 2
3079 1 2.56674 0.438466 0.02 0 0 0 1 2
3080 1 2.58741 0.837608 0.02 0 0 0 1 2
3078 1 2.55011 0.641213 0.02 0 0 0 1 2
3076 1 2.36642 0.481996 0.02 0 0 0 1 2
3077 1 2.35756 0.685826 0.02 0 0 0 1 2
3081 1 2.74761 0.623512 0.02 0 0 0 1 2
3082 1 2.79251 0.816101 0.02 0 0 0 1 2
3083 1 2.94346 0.578065 0.02 0 0 0 1 2
180 2 2.2 8 0 0 0 0 1 5
420 2 2.6 9.4 0 0 0 0 1 5
317 2 2.4 8.8 0 0 0 0 1 5
3093 1 2.22484 1.09277 0.02 0 0 0 1 2
3095 1 2.25909 1.28998 0.02 0 0 0 1 2
3090 1 2.05313 1.27685 0.02 0 0 0 1 2
3089 1 2.02728 1.07701 0.02 0 0 0 1 2
3091 1 2.1875 0.88943 0.02 0 0 0 1 2
3098 1 2.64567 1.25083 0.02 0 0 0 1 2
3097 1 2.60727 1.03842 0.02 0 0 0 1 2
3094 1 2.42025 1.08613 0.02 0 0 0 1 2
3096 1 2.46023 1.28632 0.02 0 0 0 1 2
3092 1 2.38802 0.884588 0.02 0 0 0 1 2
3100 1 2.82711 1.21394 0.02 0 0 0 1 2
3099 1 2.8017 1.01292 0.02 0 0 0 1 2
179 2 2 8 0 0 0 0 1 5
148 2 2.6 7.8 0 0 0 0 1 5
421 2 2.8 9.4 0 0 0 0 1 5
385 2 2.4 9.2 0 0 0 0 1 5
3109 1 2.31465 1.48123 0.02 0 0 0 1 2
3108 1 2.14617 1.66421 0.02 0 0 0 1 2
3107 1 2.1065 1.47043 0.02 0 0 0 1 2
3112 1 2.56245 1.6776 0.02 0 0 0 1 2
3110 1 2.51436 1.48088 0.02 0 0 0 1 2
3111 1 2.35368 1.67257 0.02 0 0 0 1 2
3115 1 2.76342 1.68355 0.02 0 0 0 1 2
3113 1 2.70176 1.47828 0.02 0 0 0 1 2
3116 1 2.94283 1.6326 0.02 0 0 0 1 2
248 2 2.2 8.4 0 0 0 0 1 5
3114 1 2.87352 1.41863 0.02 0 0 0 1 2
316 2 2.2 8.8 0 0 0 0 1 5
489 2 2.8 9.8 0 0 0 0 1 5
488 2 2.6 9.8 0 0 0 0 1 5
3123 1 2.18036 2.04173 0.02 0 0 0 1 2
3122 1 2.17911 1.85191 0.02 0 0 0 1 2
3126 1 2.59445 2.05706 0.02 0 0 0 1 2
3127 1 2.60738 1.86993 0.02 0 0 0 1 2
3124 1 2.39861 1.85816 0.02 0 0 0 1 2
3125 1 2.38281 2.04562 0.02 0 0 0 1 2
3128 1 2.80401 1.88295 0.02 0 0 0 1 2
249 2 2.4 8.4 0 0 0 0 1 5
149 2 2.8 7.8 0 0 0 0 1 5
3129 1 2.8361 2.06902 0.02 0 0 0 1 2
315 2 2 8.8 0 0 0 0 1 5
384 2 2.2 9.2 0 0 0 0 1 5
3136 1 2.16013 2.40818 0.02 0 0 0 1 2
3137 1 2.14742 2.58999 0.02 0 0 0 1 2
3138 1 2.18438 2.22821 0.02 0 0 0 1 2
3143 1 2.65549 2.22749 0.02 0 0 0 1 2
3144 1 2.61817 2.40205 0.02 0 0 0 1 2
3142 1 2.58492 2.58048 0.02 0 0 0 1 2
3139 1 2.41699 2.22749 0.02 0 0 0 1 2
3140 1 2.38567 2.4033 0.02 0 0 0 1 2
3141 1 2.37158 2.58381 0.02 0 0 0 1 2
3147 1 2.79122 2.60748 0.02 0 0 0 1 2
281 2 2 8.6 0 0 0 0 1 5
282 2 2.2 8.6 0 0 0 0 1 5
3146 1 2.85943 2.43811 0.02 0 0 0 1 2
3145 1 2.86117 2.25492 0.02 0 0 0 1 2
455 2 2.8 9.6 0 0 0 0 1 5
454 2 2.6 9.6 0 0 0 0 1 5
383 2 2 9.2 0 0 0 0 1 5
3157 1 2.31555 2.75989 0.02 0 0 0 1 2
3158 1 2.28888 2.94667 0.02 0 0 0 1 2
3156 1 2.09219 2.76998 0.02 0 0 0 1 2
3155 1 2.09111 2.9663 0.02 0 0 0 1 2
3163 1 2.68454 2.96713 0.02 0 0 0 1 2
3159 1 2.48608 2.94817 0.02 0 0 0 1 2
3160 1 2.54371 2.76421 0.02 0 0 0 1 2
3161 1 2.76367 2.79101 0.02 0 0 0 1 2
80 2 2.6 7.4 0 0 0 0 0.998781 5
115 2 2.8 7.6 0 0 0 0 1 5
3164 1 2.9051 2.97185 0.02 0 0 0 1 2
351 2 2.4 9 0 0 0 0 1 5
419 2 2.4 9.4 0 0 0 0 1 5
3170 1 2.04796 3.16089 0.02 0 0 0 1 2
3174 1 2.26434 3.32717 0.02 0 0 0 1 2
3172 1 2.26296 3.13641 0.02 0 0 0 1 2
3171 1 2.07188 3.3575 0.02 0 0 0 1 2
3176 1 2.66365 3.31714 0.02 0 0 0 1 2
3173 1 2.48969 3.13863 0.02 0 0 0 1 2
3175 1 2.46036 3.32702 0.02 0 0 0 1 2
3177 1 2.73669 3.14711 0.02 0 0 0 1 2
81 2 2.8 7.4 0 0 0 0 0.999927 5
3179 1 2.89481 3.32024 0.02 0 0 0 1 2
250 2 2.6 8.4 0 0 0 0 1 5
251 2 2.8 8.4 0 0 0 0 1 5
3184 1 2.05443 3.54804 0.02 0 0 0 1 2
3189 1 2.33001 3.71568 0.02 0 0 0 1 2
3187 1 2.27454 3.52417 0.02 0 0 0 1 2
3185 1 2.10811 3.89884 0.02 0 0 0 1 2
3186 1 2.12232 3.71725 0.02 0 0 0 1 2
3188 1 2.48851 3.51835 0.02 0 0 0 1 2
3190 1 2.52881 3.70997 0.02 0 0 0 1 2
3191 1 2.51512 3.90791 0.02 0 0 0 1 2
3194 1 2.71901 3.71006 0.02 0 0 0 1 2
3192 1 2.69665 3.5067 0.02 0 0 0 1 2
217 2 2.8 8.2 0 0 0 0 1 5
216 2 2.6 8.2 0 0 0 0 1 5
3195 1 2.90343 3.72604 0.02 0 0 0 1 2
3193 1 2.89326 3.51062 0.02 0 0 0 1 2
451 2 2 9.6 0 0 0 0 1 5
487 2 2.4 9.8 0 0 0 0 1 5
3207 1 2.27967 4.31636 0.02 0 0 0 1 2
3205 1 2.31156 4.11818 0.02 0 0 0 1 2
3204 1 2.3146 3.91662 0.02 0 0 0 1 2
3202 1 2.11147 4.08785 0.02 0 0 0 1 2
3203 1 2.08197 4.2803 0.02 0 0 0 1 2
3209 1 2.65827 4.33991 0.02 0 0 0 1 2
3206 1 2.50622 4.11088 0.02 0 0 0 1 2
3208 1 2.47268 4.32326 0.02 0 0 0 1 2
3212 1 2.69582 4.13074 0.02 0 0 0 1 2
3210 1 2.711 3.92094 0.02 0 0 0 1 2
3213 1 2.88135 4.1593 0.02 0 0 0 1 2
183 2 2.8 8 0 0 0 0 1 5
182 2 2.6 8 0 0 0 0 1 5
3211 1 2.89996 3.94528 0.02 0 0 0 1 2
486 2 2.2 9.8 0 0 0 0 1 5
485 2 2 9.8 0 0 0 0 1 5
3220 1 2.07527 4.48606 0.02 0 0 0 1 2
3221 1 2.07782 4.71315 0.02 0 0 0 1 2
3224 1 2.25489 4.73643 0.02 0 0 0 1 2
3222 1 2.25839 4.52044 0.02 0 0 0 1 2
3227 1 2.61545 4.77584 0.02 0 0 0 1 2
3226 1 2.62917 4.55417 0.02 0 0 0 1 2
3223 1 2.4441 4.53979 0.02 0 0 0 1 2
3225 1 2.4337 4.75752 0.02 0 0 0 1 2
3229 1 2.81578 4.58592 0.02 0 0 0 1 2
3228 1 2.84014 4.37314 0.02 0 0 0 1 2
114 2 2.6 7.6 0 0 0 0 1 5
111 2 2 7.6 0 0 0 0 1 5
418 2 2.2 9.4 0 0 0 0 1 5
417 2 2 9.4 0 0 0 0 1 5
353 2 2.8 9 0 0 0 0 1 5
3237 1 2.06634 4.93785 0.02 0 0 0 1 2
3241 1 2.25298 5.17761 0.02 0 0 0 1 2
3239 1 2.2467 4.96182 0.02 0 0 0 1 2
3238 1 2.06631 5.16469 0.02 0 0 0 1 2
3243 1 2.61903 4.99551 0.02 0 0 0 1 2
3244 1 2.63927 5.20262 0.02 0 0 0 1 2
3240 1 2.43185 4.97123 0.02 0 0 0 1 2
3242 1 2.44302 5.1837 0.02 0 0 0 1 2
3246 1 2.81083 4.99763 0.02 0 0 0 1 2
3245 1 2.80259 4.79243 0.02 0 0 0 1 2
77 2 2 7.4 0 0 0 0 1.0108 5
215 2 2.4 8.2 0 0 0 0 1 5
3247 1 2.8402 5.19836 0.02 0 0 0 1 2
145 2 2 7.8 0 0 0 0 1 5
453 2 2.4 9.6 0 0 0 0 1 5
318 2 2.6 8.8 0 0 0 0 1 5
3256 1 2.07617 5.37435 0.02 0 0 0 1 2
3257 1 2.07951 5.57818 0.02 0 0 0 1 2
3260 1 2.27 5.60387 0.02 0 0 0 1 2
3258 1 2.26772 5.39255 0.02 0 0 0 1 2
3263 1 2.66091 5.60241 0.02 0 0 0 1 2
3262 1 2.65519 5.40415 0.02 0 0 0 1 2
3261 1 2.4633 5.59439 0.02 0 0 0 1 2
3259 1 2.46001 5.39038 0.02 0 0 0 1 2
214 2 2.2 8.2 0 0 0 0 1 5
3265 1 2.85925 5.60023 0.02 0 0 0 1 2
3264 1 2.85035 5.39931 0.02 0 0 0 1 2
213 2 2 8.2 0 0 0 0 1 5
319 2 2.8 8.8 0 0 0 0 1 5
452 2 2.2 9.6 0 0 0 0 1 5
3273 1 2.1078 5.98859 0.02 0 0 0 1 2
3272 1 2.0752 5.78453 0.02 0 0 0 1 2
3276 1 2.30716 6.00627 0.02 0 9.00068e-08 -2.60921e-07 1 2
3274 1 2.27016 5.80865 0.02 0 1.07507e-10 -3.68126e-10 1 2
3278 1 2.66992 5.79528 0.02 0 1.3764e-11 -7.47181e-11 1 2
3277 1 2.50667 5.98973 0.02 0 3.21946e-08 -1.14051e-07 1 2
3275 1 2.46675 5.79532 0.02 0 2.32488e-11 -1.29703e-10 1 2
3280 1 2.70874 5.98378 0.02 0 2.57963e-08 -1.07712e-07 1 2
3281 1 2.91078 5.9891 0.02 0 2.76115e-08 -1.11203e-07 1 2
284 2 2.6 8.6 0 0 0 0 1 5
181 2 2.4 8 0 0 0 0 1 5
3279 1 2.87677 5.79627 0.02 0 1.47461e-11 -7.42745e-11 1 2
386 2 2.6 9.2 0 0 0 0 1 5
387 2 2.8 9.2 0 0 0 0 1 5
3287 1 2.12855 6.19047 0.02 0 0 0 1 2
3289 1 2.32354 6.20065 0.02 0 1.08311e-05 -2.18062e-05 1 2
3288 1 2.15252 6.38573 0.02 0 -2.43146e-06 5.27492e-07 1 2
3292 1 2.5713 6.36566 0.02 0 0.000100307 -0.000122126 1 2
3290 1 2.52292 6.18222 0.02 0 7.00329e-06 -1.48948e-05 1 2
3291 1 2.36411 6.38513 0.02 0 0.000163921 -0.000177777 1 2
3295 1 2.77323 6.36361 0.02 0 8.87421e-05 -0.000119941 1 2
3293 1 2.72865 6.17411 0.02 0 5.03381e-06 -1.16999e-05 1 2
3294 1 2.93803 6.17858 0.02 0 5.64091e-06 -1.21028e-05 1 2
146 2 2.2 7.8 0 0 0 0 1 5
285 2 2.8 8.6 0 0 0 0 1 5
283 2 2.4 8.6 0 0 0 0 1 5
3301 1 2.18773 6.56823 0.02 0 -0.000703724 0.000122514 1 2
3302 1 2.18738 6.75255 0.02 0 -0.00315461 9.63168e-05 1 2
3306 1 2.58562 6.72972 0.02 0 -0.00222607 0.000354703 1 2
3304 1 2.59228 6.54948 0.02 0 0.000201928 -0.000383124 1 2
3305 1 2.38975 6.7551 0.02 0 -0.00264699 0.000263676 1 2
3303 1 2.38998 6.56765 0.02 0 0.000295932 -0.000377169 1 2
3309 1 2.78786 6.74701 0.02 0 -0.00281714 0.000438595 1 2
3307 1 2.78783 6.55834 0.02 0 0.000169143 -0.000340764 1 2
147 2 2.4 7.8 0 0 0 0 1 5
78 2 2.2 7.4 0 0 0 0 0.999749 5
247 2 2 8.4 0 0 0 0 1 5
352 2 2.6 9 0 0 0 0 1 5
9 2 2 7 0 0 0 0 1.01115 5
10 2 2.2 7 0 0 0 0 1.00357 5
11 2 2.4 7 0 0 0 0 0.999591 5
43 2 2 7.2 0 0 0 0 1.01119 5
44 2 2.2 7.2 0 0 0 0 1.00311 5
45 2 2.4 7.2 0 0 0 0 0.99878 5
12 2 2.6 7 0 0 0 0 0.999661 5
47 2 2.8 7.2 0 0 0 0 1.00132 5
46 2 2.6 7.2 0 0 0 0 0.99941 5
13 2 2.8 7 0 0 0 0 1.00058 5
112 2 2.2 7.6 0 0 0 0 1 5
113 2 2.4 7.6 0 0 0 0 1 5
79 2 2.4 7.4 0 0 0 0 0.999345 5
1583 2 3.2 -9.6 0 0 0 0 1 5
1582 2 3 -9.6 0 0 0 0 1 5
1549 2 3.2 -9.8 0 0 0 0 1 5
1548 2 3 -9.8 0 0 0 0 1 5
1515 2 3.2 -10 0 0 0 0 1 5
1514 2 3 -10 0 0 0 0 1 5
1584 2 3.4 -9.6 0 0 0 0 1 5
1550 2 3.4 -9.8 0 0 0 0 1 5
1516 2 3.4 -10 0 0 0 0 1 5
1586 2 3.8 -9.6 0 0 0 0 1 5
1585 2 3.6 -9.6 0 0 0 0 1 5
1552 2 3.8 -9.8 0 0 0 0 1 5
1551 2 3.6 -9.8 0 0 0 0 1 5
1518 2 3.8 -10 0 0 0 0 1 5
1517 2 3.6 -10 0 0 0 0 1 5
1588 2 4.2 -9.6 0 0 0 0 1 5
1587 2 4 -9.6 0 0 0 0 1 5
1554 2 4.2 -9.8 0 0 0 0 1 5
1553 2 4 -9.8 0 0 0 0 1 5
1520 2 4.2 -10 0 0 0 0 1 5
1519 2 4 -10 0 0 0 0 1 5
1616 2 3 -9.4 0 0 0 0 1 5
1617 2 3.2 -9.4 0 0 0 0 1 5
1651 2 3.2 -9.2 0 0 0 0 1 5
1650 2 3 -9.2 0 0 0 0 1 5
1652 2 3.4 -9.2 0 0 0 0 1 5
1618 2 3.4 -9.4 0 0 0 0 1 5
1653 2 3.6 -9.2 0 0 0 0 1 5
1654 2 3.8 -9.2 0 0 0 0 1 5
1620 2 3.8 -9.4 0 0 0 0 1 5
1619 2 3.6 -9.4 0 0 0 0 1 5
1622 2 4.2 -9.4 0 0 0 0 1 5
1655 2 4 -9.2 0 0 0 0 1 5
1656 2 4.2 -9.2 0 0 0 0 1 5
1621 2 4 -9.4 0 0 0 0 1 5
1719 2 3.2 -8.8 0 0 0 0 1 5
1718 2 3 -8.8 0 0 0 0 1 5
1685 2 3.2 -9 0 0 0 0 1 5
1684 2 3 -9 0 0 0 0 1 5
1686 2 3.4 -9 0 0 0 0 1 5
1720 2 3.4 -8.8 0 0 0 0 1 5
1687 2 3.6 -9 0 0 0 0 1 5
1688 2 3.8 -9 0 0 0 0 1 5
1721 2 3.6 -8.8 0 0 0 0 1 5
1722 2 3.8 -8.8 0 0 0 0 1 5
1689 2 4 -9 0 0 0 0 1 5
1690 2 4.2 -9 0 0 0 0 1 5
1723 2 4 -8.8 0 0 0 0 1 5
1724 2 4.2 -8.8 0 0 0 0 1 5
1752 2 3 -8.6 0 0 0 0 1 5
1753 2 3.2 -8.6 0 0 0 0 1 5
1786 2 3 -8.4 0 0 0 0 1 5
1787 2 3.2 -8.4 0 0 0 0 1 5
1754 2 3.4 -8.6 0 0 0 0 1 5
1788 2 3.4 -8.4 0 0 0 0 1 5
1755 2 3.6 -8.6 0 0 0 0 1 5
1756 2 3.8 -8.6 0 0 0 0 1 5
1789 2 3.6 -8.4 0 0 0 0 1 5
1790 2 3.8 -8.4 0 0 0 0 1 5
1757 2 4 -8.6 0 0 0 0 1 5
1758 2 4.2 -8.6 0 0 0 0 1 5
1791 2 4 -8.4 0 0 0 0 1 5
1792 2 4.2 -8.4 0 0 0 0 1 5
1820 2 3 -8.2 0 0 0 0 1 5
1821 2 3.2 -8.2 0 0 0 0 1 5
1854 2 3 -8 0 0 0 0 1 5
1855 2 3.2 -8 0 0 0 0 1 5
1822 2 3.4 -8.2 0 0 0 0 1 5
1856 2 3.4 -8 0 0 0 0 1 5
1823 2 3.6 -8.2 0 0 0 0 1 5
1824 2 3.8 -8.2 0 0 0 0 1 5
1857 2 3.6 -8 0 0 0 0 1 5
1858 2 3.8 -8 0 0 0 0 1 5
1825 2 4 -8.2 0 0 0 0 1 5
1826 2 4.2 -8.2 0 0 0 0 1 5
1859 2 4 -8 0 0 0 0 1 5
1860 2 4.2 -8 0 0 0 0 1 5
1888 2 3 -7.8 0 0 0 0 1 5
1889 2 3.2 -7.8 0 0 0 0 1 5
1922 2 3 -7.6 0 0 0 0 1 5
1923 2 3.2 -7.6 0 0 0 0 1 5
1956 2 3 -7.4 0 0 0 0 0.999888 5
1957 2 3.2 -7.4 0 0 0 0 0.991727 5
1890 2 3.4 -7.8 0 0 0 0 1 5
1924 2 3.4 -7.6 0 0 0 0 1 5
1958 2 3.4 -7.4 0 0 0 0 1.00015 5
1891 2 3.6 -7.8 0 0 0 0 1 5
1892 2 3.8 -7.8 0 0 0 0 1 5
1925 2 3.6 -7.6 0 0 0 0 1 5
1926 2 3.8 -7.6 0 0 0 0 1 5
1959 2 3.6 -7.4 0 0 0 0 0.98894 5
1960 2 3.8 -7.4 0 0 0 0 1.00556 5
1893 2 4 -7.8 0 0 0 0 1 5
1894 2 4.2 -7.8 0 0 0 0 1 5
1927 2 4 -7.6 0 0 0 0 1 5
1928 2 4.2 -7.6 0 0 0 0 1 5
1961 2 4 -7.4 0 0 0 0 0.998338 5
1962 2 4.2 -7.4 0 0 0 0 1.0022 5
1990 2 3 -7.2 0 0 0 0 0.999711 5
1991 2 3.2 -7.2 0 0 0 0 0.998236 5
2024 2 3 -7 0 0 0 0 0.999766 5
2025 2 3.2 -7 0 0 0 0 0.998963 5
1992 2 3.4 -7.2 0 0 0 0 0.997545 5
2026 2 3.4 -7 0 0 0 0 0.996631 5
1993 2 3.6 -7.2 0 0 0 0 0.990765 5
1994 2 3.8 -7.2 0 0 0 0 1.00604 5
2027 2 3.6 -7 0 0 0 0 0.992616 5
2028 2 3.8 -7 0 0 0 0 1.00601 5
1995 2 4 -7.2 0 0 0 0 1.00298 5
1996 2 4.2 -7.2 0 0 0 0 0.999736 5
2029 2 4 -7 0 0 0 0 1.00335 5
2030 2 4.2 -7 0 0 0 0 0.999334 5
3186 1 3.40272 -6.74733 0.02 0 -0.00231951 -0.000504187 1 2
3188 1 3.43255 -6.56511 0.02 0 2.27814e-05 0.000595527 1 2
2921 1 4.04125 -6.55585 0.0165547 0 -8.93852e-05 0.000102981 1 2
2922 1 3.94371 -6.74131 0.0137015 0 -0.0011916 -0.000434153 1 2
2925 1 4.23431 -6.55059 0.0169899 0 -8.40786e-05 0.000383697 1 2
2923 1 4.11771 -6.73288 0.0148484 0 -0.0024078 -0.00046396 1 2
2926 1 4.40835 -6.56092 0.0169389 0 0.000416464 0.000654842 1 2
2924 1 4.2487 -6.75405 0.0142065 0 -0.00251551 -0.000310688 1 2
3077 1 3.22014 -0.513537 0.02 0 0 0 1 2
2927 1 4.41944 -6.73507 0.0151692 0 -0.000888073 -3.79084e-05 1 2
3079 1 3.23636 -0.722222 0.02 0 0 0 1 2
3201 1 3.41645 -6.375 0.02 0 0.000133912 0.000157183 1 2
3203 1 3.45468 -6.19302 0.02 0 4.73677e-06 2.12423e-05 1 2
2936 1 4.01343 -6.37194 0.0168598 0 -0.000108555 -5.3518e-05 1 2
2935 1 4.07182 -6.18665 0.0168579 0 8.19313e-05 2.74273e-05 1 2
2939 1 4.27335 -6.18267 0.0169325 0 0.000328511 8.42873e-05 1 2
2937 1 4.21992 -6.3674 0.0168283 0 0.000275283 0.000161521 1 2
3128 1 3.07294 -1.76874 0.02 0 0 0 1 2
2938 1 4.42618 -6.36328 0.0171344 0 0.000393223 0.00035627 1 2
3279 1 3.21523 -4.13072 0.02 0 0 0 1 2
3095 1 3.25667 -1.14299 0.02 0 0 0 1 2
3216 1 3.43653 -6.01202 0.02 0 3.27375e-07 4.39986e-07 1 2
2951 1 4.13341 -5.80658 0.0195333 0 -0.000444025 1.38988e-05 1 2
2949 1 4.0834 -5.99723 0.0173518 0 0.000248551 7.89108e-06 1 2
2950 1 4.28574 -5.98398 0.0187985 0 -0.000178858 -2.77149e-05 1 2
3310 1 3.12546 -3.37192 0.02 0 0 0 1 2
3129 1 3.07768 -1.97137 0.02 0 0 0 1 2
2952 1 4.32741 -5.77274 0.019676 0 8.60911e-05 1.19385e-05 1 2
3093 1 3.25139 -0.93144 0.02 0 0 0 1 2
3109 1 3.28126 -1.35301 0.02 0 0 0 1 2
2967 1 4.15341 -5.227 0.0199999 0 -4.87153e-06 -4.85871e-07 1 2
2963 1 4.13912 -5.61253 0.0197888 0 -1.55576e-05 -3.29046e-06 1 2
2965 1 4.14601 -5.41997 0.0199965 0 -4.62115e-05 -6.22711e-06 1 2
3295 1 3.1602 -3.74724 0.02 0 0 0 1 2
3297 1 3.13519 -3.55933 0.02 0 0 0 1 2
2966 1 4.35453 -5.36883 0.0199999 0 2.19308e-05 1.08092e-05 1 2
2964 1 4.34134 -5.56602 0.0199607 0 -6.14576e-06 2.54775e-05 1 2
3281 1 3.14847 -3.93693 0.02 0 0 0 1 2
2812 1 4.33932 -0.325939 0.02 0 -1.63311e-17 1.82403e-18 1 2
3251 1 3.34267 -4.92468 0.02 0 0 0 1 2
3250 1 3.3178 -5.11353 0.02 0 0 0 1 2
2977 1 4.12412 -5.03675 0.02 0 -1.63749e-07 -3.63427e-08 1 2
2980 1 4.14379 -4.84099 0.02 0 7.46155e-09 5.52112e-09 1 2
3263 1 3.10939 -4.70114 0.02 0 0 0 1 2
3249 1 3.14192 -4.90537 0.02 0 0 0 1 2
2979 1 4.32861 -4.99135 0.02 0 1.18871e-06 9.60513e-07 1 2
2978 1 4.36166 -5.17716 0.0199999 0 9.47858e-06 5.24697e-06 1 2
2981 1 4.3512 -4.80092 0.02 0 8.91306e-08 7.52396e-08 1 2
2811 1 4.33496 -0.127069 0.02 0 2.80158e-17 -4.97589e-19 1 2
3248 1 3.10722 -5.09969 0.02 0 0 0 1 2
3266 1 3.45573 -4.35019 0.02 0 -1.41213e-14 2.10776e-15 1 2
2990 1 4.10509 -4.65191 0.02 0 -6.71766e-10 -1.02986e-10 1 2
2992 1 4.10419 -4.4537 0.02 0 -6.2307e-11 -1.50687e-11 1 2
3062 1 3.13923 -0.0865354 0.02 0 0 0 1 2
3063 1 3.16773 -0.30017 0.02 0 0 0 1 2
3235 1 3.31142 -5.3009 0.02 0 0 0 1 2
2991 1 4.30976 -4.61708 0.02 0 1.77734e-09 2.26957e-09 1 2
2993 1 4.30644 -4.42822 0.02 0 1.55718e-10 1.36059e-10 1 2
2814 1 4.1232 -0.152884 0.02 0 1.96204e-18 -3.30679e-19 1 2
2813 1 4.14312 -0.347981 0.02 0 -1.28086e-17 -5.02237e-19 1 2
3061 1 3.36054 -0.326468 0.02 0 0 0 1 2
3280 1 3.42044 -4.15401 0.02 0 -2.19734e-15 -2.49297e-16 1 2
3282 1 3.36262 -3.96157 0.02 0 -1.04166e-16 -9.52869e-18 1 2
3005 1 4.04841 -4.26376 0.02 0 -2.91239e-14 -3.74791e-14 1 2
3007 1 4.03813 -4.07443 0.02 0 -2.80148e-13 -4.85165e-14 1 2
3008 1 4.26461 -4.07209 0.02 0 2.05691e-12 2.48686e-12 1 2
3006 1 4.25994 -4.25029 0.02 0 2.60532e-11 2.63167e-11 1 2
3130 1 3.05776 -2.16946 0.02 0 0 0 1 2
3147 1 3.09368 -2.58452 0.02 0 0 0 1 2
3110 1 3.28421 -1.56535 0.02 0 0 0 1 2
3060 1 3.33055 -0.115834 0.02 0 0 0 1 2
3298 1 3.35253 -3.58325 0.02 0 -6.55266e-19 2.68016e-20 1 2
3296 1 3.37356 -3.77083 0.02 0 -2.64684e-16 -1.75003e-19 1 2
3019 1 4.00767 -3.89035 0.02 0 -2.14883e-13 -6.46548e-14 1 2
3021 1 4.02293 -3.70246 0.02 0 -1.93002e-13 -9.00884e-15 1 2
3023 1 4.20961 -3.51178 0.02 0 4.48661e-13 -8.51009e-14 1 2
3022 1 4.23132 -3.70607 0.02 0 4.69358e-13 -2.21632e-14 1 2
3020 1 4.22744 -3.89342 0.02 0 1.12396e-14 7.07143e-14 1 2
3146 1 3.07301 -2.37639 0.02 0 0 0 1 2
3162 1 3.09304 -2.98138 0.02 0 0 0 1 2
3215 1 3.22814 -6.00969 0.02 0 6.89961e-08 1.33583e-07 1 2
3125 1 3.2647 -1.78553 0.02 0 -2.23219e-28 -4.77756e-28 1 2
3311 1 3.35236 -3.3959 0.02 0 -8.93721e-18 -1.2895e-18 1 2
2920 1 4.01697 -3.32049 0.02 0 -2.87054e-13 -4.36894e-14 1 2
2918 1 4.15384 -3.12678 0.02 0 5.11594e-13 8.06815e-14 1 2
2919 1 4.21817 -3.31305 0.02 0 4.60423e-13 6.04154e-15 1 2
2915 1 4.41605 -3.27594 0.02 0 -2.2701e-13 8.60953e-15 1 2
2916 1 4.41653 -3.46983 0.02 0 -3.23428e-13 -1.20697e-14 1 2
2917 1 4.37393 -3.09032 0.02 0 -9.37031e-14 1.75693e-14 1 2
3200 1 3.2217 -6.36654 0.02 0 9.00581e-05 0.000115728 1 2
3202 1 3.23001 -6.18795 0.02 0 6.76643e-06 1.19913e-05 1 2
3185 1 3.20654 -6.73157 0.02 0 -0.00209128 -0.000411318 1 2
2904 1 4.15082 -2.93542 0.02 0 2.82757e-13 -2.76783e-14 1 2
2902 1 4.09829 -2.74803 0.02 0 -3.73327e-13 8.96964e-15 1 2
3234 1 3.26949 -5.48168 0.02 0 -5.01425e-13 4.02379e-13 1 2
3217 1 3.26826 -5.83787 0.02 0 3.46468e-10 6.02929e-10 1 2
2901 1 4.30997 -2.71402 0.02 0 1.41724e-13 3.67005e-14 1 2
2903 1 4.35116 -2.90063 0.02 0 -2.52814e-13 -4.88846e-15 1 2
2824 1 4.42991 -0.727275 0.02 0 -1.88456e-18 -1.14563e-19 1 2
3187 1 3.22808 -6.55022 0.02 0 0.000152658 0.000416393 1 2
3142 1 3.44926 -2.17895 0.02 0 -2.34825e-18 9.76418e-20 1 2
3144 1 3.45209 -2.39151 0.02 0 -7.82347e-18 1.97712e-18 1 2
2888 1 4.03052 -2.36162 0.02 0 -3.51247e-16 -1.14879e-16 1 2
2890 1 4.09314 -2.5513 0.02 0 -3.49165e-14 -6.735e-15 1 2
2889 1 4.2942 -2.52318 0.02 0 7.61255e-14 4.11781e-14 1 2
2887 1 4.23554 -2.33645 0.02 0 4.56593e-15 7.39993e-15 1 2
3111 1 3.08838 -1.34964 0.02 0 0 0 1 2
3112 1 3.09369 -1.56411 0.02 0 0 0 1 2
3127 1 3.27016 -2.00359 0.02 0 0 0 1 2
3145 1 3.26389 -2.41858 0.02 0 0 0 1 2
3124 1 3.45524 -1.76142 0.02 0 -1.1741e-18 -3.13481e-19 1 2
3126 1 3.45808 -1.96684 0.02 0 -1.85244e-18 8.58177e-21 1 2
2876 1 4.02298 -2.15848 0.02 0 -1.01501e-16 -1.10808e-17 1 2
2874 1 4.02529 -1.94759 0.02 0 -5.41545e-17 3.91204e-18 1 2
2875 1 4.21958 -2.14153 0.02 0 2.51129e-16 4.89452e-16 1 2
2873 1 4.21959 -1.94213 0.02 0 3.60059e-17 8.68752e-18 1 2
2869 1 4.2288 -1.74 0.02 0 2.55976e-17 1.95782e-18 1 2
2872 1 4.42586 -2.14062 0.02 0 -7.66471e-16 1.18117e-15 1 2
2871 1 4.42211 -1.95058 0.02 0 -3.44091e-17 7.75197e-18 1 2
2870 1 4.42689 -1.75666 0.02 0 -3.49054e-17 3.7867e-19 1 2
3143 1 3.25512 -2.21109 0.02 0 0 0 1 2
3158 1 3.29337 -2.62142 0.02 0 0 0 1 2
2857 1 4.22519 -1.53436 0.02 0 2.62874e-17 2.42157e-18 1 2
2856 1 4.25952 -1.32969 0.02 0 1.7351e-17 1.2154e-18 1 2
2858 1 4.04036 -1.50843 0.02 0 -2.80477e-17 5.66893e-19 1 2
2859 1 4.03631 -1.73208 0.02 0 -3.76883e-17 -3.74628e-19 1 2
3159 1 3.29087 -2.82192 0.02 0 -2.60845e-23 3.16542e-23 1 2
3160 1 3.29761 -3.01868 0.02 0 -1.24877e-21 9.42149e-22 1 2
3312 1 3.27518 -3.21298 0.02 0 0 0 1 2
2855 1 4.41759 -1.55807 0.02 0 -1.375e-17 4.14164e-18 1 2
3161 1 3.09064 -2.78421 0.02 0 0 0 1 2
3092 1 3.44547 -0.942931 0.02 0 -3.25867e-20 8.11957e-22 1 2
3094 1 3.44613 -1.15024 0.02 0 -1.01773e-19 2.64415e-20 1 2
2840 1 4.2343 -1.12575 0.02 0 -1.11791e-17 3.82167e-19 1 2
2838 1 4.24406 -0.929103 0.02 0 2.82056e-18 8.60479e-19 1 2
2842 1 4.06596 -1.29527 0.02 0 -1.8212e-17 2.24932e-18 1 2
2839 1 4.0414 -0.901014 0.02 0 2.20278e-18 -3.27766e-20 1 2
2841 1 4.02893 -1.09749 0.02 0 -8.80115e-18 -2.95972e-19 1 2
3309 1 3.07211 -3.17598 0.02 0 0 0 1 2
3097 1 3.07188 -1.12526 0.02 0 0 0 1 2
3278 1 3.25244 -4.33223 0.02 0 0 0 1 2
3264 1 3.30938 -4.72887 0.02 0 0 0 1 2
3076 1 3.41534 -0.534831 0.02 0 -1.05236e-21 -5.2332e-23 1 2
3078 1 3.43476 -0.739652 0.02 0 -1.47046e-20 -8.74616e-22 1 2
2825 1 4.19715 -0.539044 0.02 0 3.60072e-18 -6.36071e-19 1 2
2827 1 4.02589 -0.705281 0.02 0 -4.03446e-18 -1.43547e-18 1 2
2826 1 4.23191 -0.732508 0.02 0 -1.37471e-18 -1.29423e-18 1 2
2823 1 4.40136 -0.522502 0.02 0 1.08233e-17 -2.48043e-18 1 2
3265 1 3.29873 -4.53126 0.02 0 0 0 1 2
3218 1 3.2565 -5.66211 0.02 0 0 0 1 2
3214 1 3.04587 -5.66559 0.02 0 0 0 1 2
3230 1 3.05072 -5.47912 0.02 0 0 0 1 2
3233 1 3.10293 -5.29448 0.02 0 0 0 1 2
3081 1 3.04389 -0.685757 0.02 0 0 0 1 2
3262 1 3.08946 -4.50463 0.02 0 0 0 1 2
3275 1 3.04838 -4.30878 0.02 0 0 0 1 2
3096 1 3.0623 -0.901264 0.02 0 0 0 1 2
3184 1 3.02982 -6.58096 0.02 0 8.24177e-06 0.000485525 1 2
3182 1 2.99818 -6.76867 0.02 0 -0.00320499 -0.000541233 1 2