ITEM: TIMESTEP
8000
ITEM: NUMBER OF ATOMS
1454
ITEM: BOX BOUNDS ff ff pp
0.0000000000000000e+00 4.4000000000000004e+00
-1.0000000000000000e+01 1.0000000000000000e+01
-2.0000000000000000e-02 2.0000000000000000e-02
ITEM: ATOMS id type x y vx vy fx fy c_den c_phase
2400 1 1.2458 -6.58047 0.02 0 -1.68845e-13 -2.05924e-14 1 2
2401 1 1.21881 -6.75534 0.02 0 -4.56416e-11 -2.64009e-11 1 2
2402 1 1.42252 -6.7545 0.02 0 -2.58614e-06 -1.52218e-06 1 2
2381 1 1.44734 -2.27951 0.02 0 0 0 1 2
2404 1 1.46221 -6.57021 0.02 0 3.51251e-08 1.81242e-07 1 2
2398 1 1.31798 -2.89186 0.02 0 0 0 1 2
2298 1 1.46873 -0.102094 0.02 0 0 0 1 2
2416 1 1.26308 -6.2288 0.02 0 0 0 1 2
2417 1 1.27257 -6.4079 0.02 0 0 0 1 2
2396 1 1.32794 -2.69006 0.02 0 0 0 1 2
2533 1 1.32568 -3.09498 0.02 0 0 0 1 2
2334 1 1.30798 -1.26707 0.02 0 0 0 1 2
2531 1 1.31446 -3.30217 0.02 0 0 0 1 2
2430 1 1.23864 -5.85696 0.02 0 0 0 1 2
2431 1 1.25859 -6.0486 0.02 0 0 0 1 2
2432 1 1.46415 -6.01867 0.02 0 2.47773e-17 8.83093e-16 1 2
2433 1 1.42834 -5.82533 0.02 0 0 0 1 2
2330 1 1.27797 -0.880323 0.02 0 0 0 1 2
2315 1 1.28983 -0.514518 0.02 0 0 0 1 2
2444 1 1.25006 -5.64953 0.02 0 0 0 1 2
2446 1 1.25136 -5.44144 0.02 0 0 0 1 2
2448 1 1.24191 -5.23262 0.02 0 0 0 1 2
2445 1 1.44448 -5.62334 0.02 0 0 0 1 2
2447 1 1.44464 -5.41999 0.02 0 0 0 1 2
2350 1 1.36308 -1.66502 0.02 0 0 0 1 2
2348 1 1.33326 -1.46594 0.02 0 0 0 1 2
2301 1 1.26582 -0.329982 0.02 0 0 0 1 2
2464 1 1.22368 -5.01823 0.02 0 0 0 1 2
2463 1 1.42809 -5.2099 0.02 0 0 0 1 2
2465 1 1.4078 -4.99268 0.02 0 0 0 1 2
2382 1 1.2548 -2.27668 0.02 0 0 0 1 2
2383 1 1.2952 -2.48392 0.02 0 0 0 1 2
2366 1 1.43365 -2.07103 0.02 0 0 0 1 2
2364 1 1.41674 -1.86633 0.02 0 0 0 1 2
2317 1 1.26699 -0.695724 0.02 0 0 0 1 2
2482 1 1.21371 -4.57803 0.02 0 0 0 1 2
2485 1 1.25398 -4.3673 0.02 0 0 0 1 2
2481 1 1.38583 -4.77962 0.02 0 0 0 1 2
2483 1 1.40429 -4.57054 0.02 0 0 0 1 2
2516 1 1.32242 -3.51789 0.02 0 0 0 1 2
2486 1 1.4534 -4.36807 0.02 0 0 0 1 2
2367 1 1.2293 -2.07675 0.02 0 0 0 1 2
2299 1 1.27229 -0.141758 0.02 0 0 0 1 2
2499 1 1.27962 -4.16107 0.02 0 0 0 1 2
2501 1 1.29712 -3.95057 0.02 0 0 0 1 2
2515 1 1.32072 -3.73477 0.02 0 0 0 1 2
2332 1 1.28404 -1.07209 0.02 0 0 0 1 2
2365 1 1.21955 -1.87308 0.02 0 0 0 1 2
2286 1 1.29147 0.270665 0.02 0 0 0 1 2
2288 1 1.29078 0.0560054 0.02 0 0 0 1 2
2287 1 1.47162 0.336851 0.02 0 0 0 1 2
2289 1 1.47101 0.118798 0.02 0 0 0 1 2
2464 1 1.38233 5.14001 0.02 0 0 0 1 2
2447 1 1.38722 4.73823 0.02 0 0 0 1 2
2304 1 1.20926 0.705152 0.02 0 0 0 1 2
2302 1 1.27184 0.488378 0.02 0 0 0 1 2
2303 1 1.45477 0.544272 0.02 0 0 0 1 2
2305 1 1.39386 0.743507 0.02 0 0 0 1 2
2522 1 1.33351 6.53654 0.02 0 -2.27801e-10 5.40119e-11 1 2
2446 1 1.34322 4.54315 0.02 0 0 0 1 2
2463 1 1.37994 4.93604 0.02 0 0 0 1 2
2318 1 1.40264 0.941402 0.02 0 0 0 1 2
2319 1 1.38054 1.13505 0.02 0 0 0 1 2
2417 1 1.42667 3.55836 0.02 0 0 0 1 2
2418 1 1.2717 3.7432 0.02 0 0 0 1 2
2524 1 1.35161 6.73003 0.02 0 -1.34942e-07 8.56901e-08 1 2
2416 1 1.21859 3.55811 0.02 0 0 0 1 2
2335 1 1.31427 1.52478 0.02 0 0 0 1 2
2336 1 1.30411 1.72167 0.02 0 0 0 1 2
2334 1 1.33653 1.32777 0.02 0 0 0 1 2
2478 1 1.34895 5.35095 0.02 0 0 0 1 2
2480 1 1.31674 5.55378 0.02 0 0 0 1 2
2435 1 1.35339 4.33685 0.02 0 0 0 1 2
2433 1 1.32382 4.13251 0.02 0 0 0 1 2
2510 1 1.28528 6.34367 0.02 0 0 0 1 2
2508 1 1.28831 6.14981 0.02 0 0 0 1 2
2353 1 1.27086 1.91195 0.02 0 0 0 1 2
2354 1 1.28281 2.10066 0.02 0 0 0 1 2
2403 1 1.38262 3.35953 0.02 0 0 0 1 2
2402 1 1.34451 3.16345 0.02 0 0 0 1 2
2496 1 1.27548 5.95702 0.02 0 0 0 1 2
2494 1 1.28914 5.75532 0.02 0 0 0 1 2
2367 1 1.22367 2.27614 0.02 0 0 0 1 2
2368 1 1.23124 2.4548 0.02 0 0 0 1 2
2369 1 1.44983 2.28563 0.02 0 0 0 1 2
2370 1 1.46337 2.46684 0.02 0 0 0 1 2
2382 1 1.42106 2.63956 0.02 0 0 0 1 2
2431 1 1.28975 3.93519 0.02 0 0 0 1 2
2381 1 1.19967 2.63076 0.02 0 0 0 1 2
2383 1 1.23753 2.80986 0.02 0 0 0 1 2
2384 1 1.33196 2.97258 0.02 0 0 0 1 2
1509 2 2 -10 0 0 0 0 1 5
1510 2 2.2 -10 0 0 0 0 1 5
1511 2 2.4 -10 0 0 0 0 1 5
1543 2 2 -9.8 0 0 0 0 1 5
1544 2 2.2 -9.8 0 0 0 0 1 5
1545 2 2.4 -9.8 0 0 0 0 1 5
1577 2 2 -9.6 0 0 0 0 1 5
1578 2 2.2 -9.6 0 0 0 0 1 5
1579 2 2.4 -9.6 0 0 0 0 1 5
1512 2 2.6 -10 0 0 0 0 1 5
1513 2 2.8 -10 0 0 0 0 1 5
1546 2 2.6 -9.8 0 0 0 0 1 5
1547 2 2.8 -9.8 0 0 0 0 1 5
1580 2 2.6 -9.6 0 0 0 0 1 5
1581 2 2.8 -9.6 0 0 0 0 1 5
1645 2 2 -9.2 0 0 0 0 1 5
1646 2 2.2 -9.2 0 0 0 0 1 5
1647 2 2.4 -9.2 0 0 0 0 1 5
1613 2 2.4 -9.4 0 0 0 0 1 5
1612 2 2.2 -9.4 0 0 0 0 1 5
1611 2 2 -9.4 0 0 0 0 1 5
1648 2 2.6 -9.2 0 0 0 0 1 5
1649 2 2.8 -9.2 0 0 0 0 1 5
1615 2 2.8 -9.4 0 0 0 0 1 5
1614 2 2.6 -9.4 0 0 0 0 1 5
1679 2 2 -9 0 0 0 0 1 5
1680 2 2.2 -9 0 0 0 0 1 5
1681 2 2.4 -9 0 0 0 0 1 5
1713 2 2 -8.8 0 0 0 0 1 5
1714 2 2.2 -8.8 0 0 0 0 1 5
1715 2 2.4 -8.8 0 0 0 0 1 5
1682 2 2.6 -9 0 0 0 0 1 5
1683 2 2.8 -9 0 0 0 0 1 5
1716 2 2.6 -8.8 0 0 0 0 1 5
1717 2 2.8 -8.8 0 0 0 0 1 5
1783 2 2.4 -8.4 0 0 0 0 1 5
1782 2 2.2 -8.4 0 0 0 0 1 5
1781 2 2 -8.4 0 0 0 0 1 5
1747 2 2 -8.6 0 0 0 0 1 5
1748 2 2.2 -8.6 0 0 0 0 1 5
1749 2 2.4 -8.6 0 0 0 0 1 5
1785 2 2.8 -8.4 0 0 0 0 1 5
1784 2 2.6 -8.4 0 0 0 0 1 5
1750 2 2.6 -8.6 0 0 0 0 1 5
1751 2 2.8 -8.6 0 0 0 0 1 5
1851 2 2.4 -8 0 0 0 0 1 5
1850 2 2.2 -8 0 0 0 0 1 5
1849 2 2 -8 0 0 0 0 1 5
1817 2 2.4 -8.2 0 0 0 0 1 5
1816 2 2.2 -8.2 0 0 0 0 1 5
1815 2 2 -8.2 0 0 0 0 1 5
1853 2 2.8 -8 0 0 0 0 1 5
1852 2 2.6 -8 0 0 0 0 1 5
1819 2 2.8 -8.2 0 0 0 0 1 5
1818 2 2.6 -8.2 0 0 0 0 1 5
1953 2 2.4 -7.4 0 0 0 0 1.00101 5
1952 2 2.2 -7.4 0 0 0 0 0.999716 5
1951 2 2 -7.4 0 0 0 0 1.00047 5
1919 2 2.4 -7.6 0 0 0 0 1 5
1918 2 2.2 -7.6 0 0 0 0 1 5
1917 2 2 -7.6 0 0 0 0 1 5
1885 2 2.4 -7.8 0 0 0 0 1 5
1884 2 2.2 -7.8 0 0 0 0 1 5
1883 2 2 -7.8 0 0 0 0 1 5
1955 2 2.8 -7.4 0 0 0 0 0.988871 5
1954 2 2.6 -7.4 0 0 0 0 1.0005 5
1921 2 2.8 -7.6 0 0 0 0 1 5
1920 2 2.6 -7.6 0 0 0 0 1 5
1887 2 2.8 -7.8 0 0 0 0 1 5
1886 2 2.6 -7.8 0 0 0 0 1 5
2021 2 2.4 -7 0 0 0 0 0.999884 5
2020 2 2.2 -7 0 0 0 0 0.999481 5
2019 2 2 -7 0 0 0 0 1.00081 5
1987 2 2.4 -7.2 0 0 0 0 1.0008 5
1986 2 2.2 -7.2 0 0 0 0 0.999394 5
1985 2 2 -7.2 0 0 0 0 1.00011 5
2023 2 2.8 -7 0 0 0 0 0.989914 5
2022 2 2.6 -7 0 0 0 0 0.996449 5
1989 2 2.8 -7.2 0 0 0 0 0.988713 5
1988 2 2.6 -7.2 0 0 0 0 0.997151 5
2410 1 2.21439 -6.74256 0.02 0 -0.00283408 -0.000669272 1 2
2412 1 2.25461 -6.56 0.02 0 0.000175528 0.00061222 1 2
2407 1 2.01568 -6.75355 0.02 0 -0.00379539 -0.000805817 1 2
2409 1 2.06011 -6.56457 0.02 0 5.71185e-05 0.000606801 1 2
2408 1 1.86466 -6.56659 0.02 0 -3.77583e-05 0.000398246 1 2
2413 1 2.44501 -6.56034 0.02 0 0.000343917 0.000619817 1 2
2411 1 2.41287 -6.75576 0.02 0 -0.00289679 -0.000654094 1 2
2415 1 2.63714 -6.57482 0.02 0 0.000641564 0.000944361 1 2
2414 1 2.61338 -6.76076 0.02 0 -0.00228323 -0.000546818 1 2
2344 1 1.75567 -1.52449 0.02 0 0 0 1 2
2288 1 2.4495 -0.32819 0.02 0 0 0 1 2
2426 1 2.28541 -6.37283 0.02 0 0.000101807 0.000176212 1 2
2428 1 2.31092 -6.18342 0.02 0 6.47929e-06 1.5817e-05 1 2
2425 1 2.10466 -6.18589 0.02 0 3.36715e-06 1.11952e-05 1 2
2424 1 2.08512 -6.37392 0.02 0 5.9318e-05 0.000140892 1 2
2423 1 1.89877 -6.184 0.02 0 5.00035e-07 3.57792e-06 1 2
2422 1 1.8865 -6.37705 0.02 0 1.67754e-05 7.74148e-05 1 2
2427 1 2.48522 -6.36822 0.02 0 0.000139579 0.000188192 1 2
2429 1 2.51568 -6.17861 0.02 0 6.38106e-06 1.9882e-05 1 2
2289 1 2.42811 -0.131593 0.02 0 0 0 1 2
2440 1 2.29084 -5.99235 0.02 0 2.95679e-08 1.13966e-07 1 2
2442 1 2.26418 -5.80089 0.02 0 3.75939e-11 1.17822e-10 1 2
2439 1 2.0866 -5.99936 0.02 0 1.92314e-08 9.29708e-08 1 2
2438 1 2.04787 -5.81645 0.02 0 3.95105e-11 1.33807e-10 1 2
2436 1 1.87975 -5.99131 0.02 0 1.19113e-09 1.40929e-08 1 2
2437 1 1.82801 -5.80594 0.02 0 0 0 1 2
2441 1 2.49577 -5.99012 0.02 0 1.89981e-08 1.45022e-07 1 2
2443 1 2.47718 -5.80157 0.02 0 2.02012e-11 9.28041e-11 1 2
2286 1 2.62075 -0.125197 0.02 0 0 0 1 2
2287 1 2.63944 -0.344474 0.02 0 -7.60597e-26 6.05609e-27 1 2
2459 1 2.22225 -5.38976 0.02 0 0 0 1 2
2457 1 2.23655 -5.60063 0.02 0 0 0 1 2
2456 1 2.01468 -5.2373 0.02 0 0 0 1 2
2455 1 2.03268 -5.43551 0.02 0 0 0 1 2
2453 1 2.04388 -5.63003 0.02 0 0 0 1 2
2452 1 1.84476 -5.61413 0.02 0 0 0 1 2
2454 1 1.83505 -5.41546 0.02 0 0 0 1 2
2460 1 2.41368 -5.40561 0.02 0 0 0 1 2
2458 1 2.42883 -5.61078 0.02 0 0 0 1 2
2462 1 2.6068 -5.38987 0.02 0 0 0 1 2
2461 1 2.62206 -5.59358 0.02 0 0 0 1 2
2346 1 1.76662 -1.7222 0.02 0 0 0 1 2
2296 1 1.87388 -0.295322 0.02 0 0 0 1 2
2473 1 2.19884 -5.1777 0.02 0 0 0 1 2
2472 1 1.96821 -4.82078 0.02 0 0 0 1 2
2470 1 1.9779 -5.03372 0.02 0 0 0 1 2
2475 1 2.16099 -4.97252 0.02 0 0 0 1 2
2474 1 2.39201 -5.19849 0.02 0 0 0 1 2
2480 1 2.59563 -4.80654 0.02 0 0 0 1 2
2478 1 2.58917 -5.19128 0.02 0 0 0 1 2
2479 1 2.55434 -4.99634 0.02 0 0 0 1 2
2476 1 2.35626 -4.99144 0.02 0 0 0 1 2
2477 1 2.38193 -4.7929 0.02 0 0 0 1 2
2294 1 1.85314 -0.094678 0.02 0 0 0 1 2
2495 1 2.22973 -4.3802 0.02 0 0 0 1 2
2493 1 2.20642 -4.58164 0.02 0 0 0 1 2
2489 1 1.99931 -4.61468 0.02 0 0 0 1 2
2491 1 2.0355 -4.40519 0.02 0 0 0 1 2
2492 1 2.17202 -4.77562 0.02 0 0 0 1 2
2490 1 1.83921 -4.42856 0.02 0 0 0 1 2
2496 1 2.4259 -4.39955 0.02 0 0 0 1 2
2494 1 2.41023 -4.59884 0.02 0 0 0 1 2
2498 1 2.62357 -4.41893 0.02 0 0 0 1 2
2497 1 2.61489 -4.61546 0.02 0 0 0 1 2
2292 1 2.04679 -0.10337 0.02 0 0 0 1 2
2293 1 2.06935 -0.31991 0.02 0 0 0 1 2
2511 1 2.24589 -3.97397 0.02 0 0 0 1 2
2509 1 2.2562 -4.17813 0.02 0 0 0 1 2
2508 1 2.05628 -3.97051 0.02 0 0 0 1 2
2506 1 2.06044 -4.18899 0.02 0 0 0 1 2
2505 1 1.86521 -4.22906 0.02 0 0 0 1 2
2507 1 1.8685 -4.02536 0.02 0 0 0 1 2
2512 1 2.44067 -3.99372 0.02 0 0 0 1 2
2510 1 2.45309 -4.1987 0.02 0 0 0 1 2
2514 1 2.63731 -4.02126 0.02 0 -8.05813e-32 -1.36475e-32 1 2
2513 1 2.65179 -4.22092 0.02 0 0 0 1 2
2291 1 2.25875 -0.365805 0.02 0 0 0 1 2
2290 1 2.2355 -0.15 0.02 0 0 0 1 2
2524 1 2.06715 -3.52636 0.02 0 0 0 1 2
2523 1 2.06491 -3.74165 0.02 0 0 0 1 2
2525 1 2.25449 -3.77151 0.02 0 0 0 1 2
2527 1 2.26099 -3.56777 0.02 0 0 0 1 2
2521 1 1.88615 -3.8147 0.02 0 0 0 1 2
2522 1 1.88407 -3.59192 0.02 0 0 0 1 2
2526 1 2.45274 -3.7928 0.02 0 0 0 1 2
2530 1 2.64947 -3.62798 0.02 0 -1.38802e-24 -6.11061e-26 1 2
2529 1 2.65991 -3.82732 0.02 0 -7.16551e-25 -4.19014e-26 1 2
2528 1 2.4571 -3.59027 0.02 0 0 0 1 2
2303 1 2.65992 -0.791499 0.02 0 -4.27458e-24 -6.27804e-26 1 2
2540 1 2.09022 -3.11366 0.02 0 0 0 1 2
2539 1 2.0625 -3.31864 0.02 0 0 0 1 2
2541 1 2.25472 -3.36362 0.02 0 0 0 1 2
2543 1 2.28023 -3.16288 0.02 0 0 0 1 2
2538 1 1.89816 -3.15141 0.02 0 0 0 1 2
2537 1 1.874 -3.36956 0.02 0 0 0 1 2
2542 1 2.4507 -3.38541 0.02 0 0 0 1 2
2545 1 2.64587 -3.42199 0.02 0 -3.52749e-24 -2.23649e-25 1 2
2399 1 2.65765 -3.21512 0.02 0 -3.11497e-23 -9.63804e-24 1 2
2544 1 2.47114 -3.17954 0.02 0 0 0 1 2
2302 1 2.64775 -0.570425 0.02 0 -2.66458e-24 -6.02867e-26 1 2
2305 1 2.47413 -0.741933 0.02 0 0 0 1 2
2392 1 1.90319 -2.93583 0.02 0 0 0 1 2
2390 1 2.09619 -2.9109 0.02 0 0 0 1 2
2391 1 1.91766 -2.7223 0.02 0 0 0 1 2
2386 1 2.31173 -2.75416 0.02 0 0 0 1 2
2388 1 2.28776 -2.95758 0.02 0 0 0 1 2
2389 1 2.11507 -2.71423 0.02 0 0 0 1 2
2387 1 2.48182 -2.97456 0.02 0 0 0 1 2
2385 1 2.5108 -2.77688 0.02 0 0 0 1 2
2304 1 2.46144 -0.530511 0.02 0 0 0 1 2
2310 1 1.88878 -0.49582 0.02 0 0 0 1 2
2312 1 1.89512 -0.698459 0.02 0 0 0 1 2
2376 1 2.04757 -2.32364 0.02 0 0 0 1 2
2375 1 2.08769 -2.51716 0.02 0 0 0 1 2
2372 1 2.25639 -2.3414 0.02 0 0 0 1 2
2374 1 2.28652 -2.54567 0.02 0 0 0 1 2
2378 1 1.88741 -2.51435 0.02 0 0 0 1 2
2377 1 1.84118 -2.31522 0.02 0 0 0 1 2
2370 1 2.45386 -2.17957 0.02 0 0 0 1 2
2369 1 2.66039 -2.40026 0.02 0 0 0 1 2
2368 1 2.65499 -2.19767 0.02 0 0 0 1 2
2373 1 2.48355 -2.57643 0.02 0 0 0 1 2
2371 1 2.45988 -2.37639 0.02 0 0 0 1 2
2308 1 2.0811 -0.538324 0.02 0 0 0 1 2
2306 1 2.27159 -0.574605 0.02 0 0 0 1 2
2356 1 2.23493 -1.94749 0.02 0 0 0 1 2
2358 1 2.04728 -2.12962 0.02 0 0 0 1 2
2359 1 2.02527 -1.93408 0.02 0 0 0 1 2
2354 1 2.17542 -1.75619 0.02 0 0 0 1 2
2357 1 2.25056 -2.1438 0.02 0 0 0 1 2
2361 1 1.84288 -2.11789 0.02 0 0 0 1 2
2355 1 2.43962 -1.97973 0.02 0 0 0 1 2
2352 1 2.6376 -1.99265 0.02 0 0 0 1 2
2353 1 2.38601 -1.77807 0.02 0 0 0 1 2
2351 1 2.58831 -1.78827 0.02 0 0 0 1 2
2360 1 1.81829 -1.92107 0.02 0 0 0 1 2
2345 1 1.9687 -1.73756 0.02 0 0 0 1 2
2340 1 2.16647 -1.56022 0.02 0 0 0 1 2
2338 1 2.11346 -1.36505 0.02 0 0 0 1 2
2343 1 1.96184 -1.53732 0.02 0 0 0 1 2
2341 1 1.90897 -1.33421 0.02 0 0 0 1 2
2339 1 2.36359 -1.57395 0.02 0 0 0 1 2
2336 1 2.5152 -1.37324 0.02 0 0 0 1 2
2335 1 2.55699 -1.5817 0.02 0 0 0 1 2
2337 1 2.31665 -1.36783 0.02 0 0 0 1 2
2321 1 2.25298 -0.967041 0.02 0 0 0 1 2
2322 1 2.28472 -1.16418 0.02 0 0 0 1 2
2324 1 2.0857 -1.16744 0.02 0 0 0 1 2
2323 1 2.05248 -0.964751 0.02 0 0 0 1 2
2327 1 1.88763 -1.12377 0.02 0 0 0 1 2
2325 1 1.86575 -0.904502 0.02 0 0 0 1 2
2320 1 2.47914 -1.16392 0.02 0 0 0 1 2
2319 1 2.45897 -0.9547 0.02 0 0 0 1 2
2318 1 2.65833 -0.996149 0.02 0 -4.13362e-24 1.2267e-24 1 2
2307 1 2.28115 -0.773748 0.02 0 0 0 1 2
2309 1 2.08344 -0.757755 0.02 0 0 0 1 2
2406 1 1.81891 -6.75641 0.02 0 -0.00265699 -0.000945643 1 2
2468 1 1.81743 -5.21275 0.02 0 0 0 1 2
2469 1 1.78605 -5.00858 0.02 0 0 0 1 2
2471 1 1.76794 -4.8102 0.02 0 0 0 1 2
2488 1 1.79215 -4.61794 0.02 0 0 0 1 2
2421 1 1.69538 -6.18987 0.02 0 4.52755e-08 4.24633e-07 1 2
2519 1 1.70262 -3.75053 0.02 0 0 0 1 2
2311 1 1.6919 -0.517524 0.02 0 0 0 1 2
2520 1 1.699 -3.53879 0.02 0 0 0 1 2
2535 1 1.68805 -3.3262 0.02 0 0 0 1 2
2536 1 1.7115 -3.11655 0.02 0 0 0 1 2
2394 1 1.71196 -2.90797 0.02 0 0 0 1 2
2393 1 1.7244 -2.70335 0.02 0 0 0 1 2
2379 1 1.68548 -2.50191 0.02 0 0 0 1 2
2328 1 1.69247 -1.12903 0.02 0 0 0 1 2
2342 1 1.70843 -1.32959 0.02 0 0 0 1 2
2313 1 1.6951 -0.722022 0.02 0 0 0 1 2
2403 1 1.62134 -6.73795 0.02 0 -0.000300363 -0.000148848 1 2
2405 1 1.66837 -6.55898 0.02 0 2.39851e-06 6.19622e-05 1 2
2420 1 1.68227 -6.3754 0.02 0 1.79137e-06 1.09849e-05 1 2
2434 1 1.62406 -5.81429 0.02 0 0 0 1 2
2435 1 1.67217 -6.00318 0.02 0 5.33466e-12 4.90962e-10 1 2
2449 1 1.64364 -5.61653 0.02 0 0 0 1 2
2450 1 1.63984 -5.41725 0.02 0 0 0 1 2
2451 1 1.62118 -5.21795 0.02 0 0 0 1 2
2363 1 1.63726 -2.09908 0.02 0 0 0 1 2
2362 1 1.61473 -1.89697 0.02 0 0 0 1 2
2297 1 1.67568 -0.312394 0.02 0 0 0 1 2
2295 1 1.6598 -0.106487 0.02 0 0 0 1 2
2487 1 1.64868 -4.37825 0.02 0 0 0 1 2
2503 1 1.67246 -4.17021 0.02 0 0 0 1 2
2504 1 1.68146 -3.95995 0.02 0 0 0 1 2
2326 1 1.67272 -0.927203 0.02 0 0 0 1 2
2380 1 1.64076 -2.30053 0.02 0 0 0 1 2
2349 1 1.56619 -1.68959 0.02 0 0 0 1 2
2466 1 1.5947 -5.01454 0.02 0 0 0 1 2
2467 1 1.57447 -4.80046 0.02 0 0 0 1 2
2484 1 1.59623 -4.58634 0.02 0 0 0 1 2
2384 1 1.48772 -2.49402 0.02 0 0 0 1 2
2395 1 1.52751 -2.7013 0.02 0 0 0 1 2
2347 1 1.54151 -1.4917 0.02 0 0 0 1 2
2329 1 1.47733 -0.894216 0.02 0 0 0 1 2
2418 1 1.47494 -6.38721 0.02 0 5.22913e-09 2.95745e-08 1 2
2419 1 1.48498 -6.20378 0.02 0 8.81517e-11 6.26554e-10 1 2
2331 1 1.49024 -1.09279 0.02 0 0 0 1 2
2333 1 1.50789 -1.29234 0.02 0 0 0 1 2
2534 1 1.51986 -3.11224 0.02 0 0 0 1 2
2532 1 1.50041 -3.32282 0.02 0 0 0 1 2
2314 1 1.49334 -0.507391 0.02 0 0 0 1 2
2316 1 1.4894 -0.701356 0.02 0 0 0 1 2
2300 1 1.47504 -0.308611 0.02 0 0 0 1 2
2397 1 1.51563 -2.9059 0.02 0 0 0 1 2
2518 1 1.51004 -3.53709 0.02 0 0 0 1 2
2517 1 1.51094 -3.74794 0.02 0 0 0 1 2
2500 1 1.47621 -4.16298 0.02 0 0 0 1 2
2502 1 1.48853 -3.95576 0.02 0 0 0 1 2
2295 1 2.03107 0.116355 0.02 0 0 0 1 2
2294 1 2.0325 0.337272 0.02 0 0 0 1 2
2297 1 2.21447 0.0680014 0.02 0 0 0 1 2
2296 1 2.21253 0.287368 0.02 0 0 0 1 2
2290 1 1.84223 0.107583 0.02 0 0 0 1 2
2292 1 1.84669 0.312641 0.02 0 0 0 1 2
2299 1 2.40528 0.0658033 0.02 0 0 0 1 2
2298 1 2.39955 0.26968 0.02 0 0 0 1 2
2301 1 2.59343 0.287883 0.02 0 0 0 1 2
2300 1 2.5986 0.0854231 0.02 0 0 0 1 2
2310 1 1.98505 0.744519 0.02 0 0 0 1 2
2313 1 2.18585 0.729522 0.02 0 0 0 1 2
2312 1 2.22224 0.508407 0.02 0 0 0 1 2
2311 1 2.03594 0.547152 0.02 0 0 0 1 2
2308 1 1.84547 0.523799 0.02 0 0 0 1 2
2315 1 2.41063 0.478725 0.02 0 0 0 1 2
2316 1 2.60912 0.484546 0.02 0 0 0 1 2
2317 1 2.57485 0.677999 0.02 0 0 0 1 2
2314 1 2.37759 0.691172 0.02 0 0 0 1 2
2325 1 1.99863 1.13869 0.02 0 0 0 1 2
2327 1 2.21182 1.13047 0.02 0 0 0 1 2
2326 1 2.20684 0.934024 0.02 0 0 0 1 2
2324 1 2.01181 0.942347 0.02 0 0 0 1 2
2330 1 2.41642 1.1014 0.02 0 0 0 1 2
2328 1 2.39711 0.898345 0.02 0 0 0 1 2
2332 1 2.61192 1.07569 0.02 0 0 0 1 2
2333 1 2.58732 1.27926 0.02 0 0 0 1 2
2331 1 2.59118 0.874366 0.02 0 0 0 1 2
2329 1 2.37783 1.29598 0.02 0 0 0 1 2
2347 1 2.13895 1.50616 0.02 0 0 0 1 2
2346 1 2.15805 1.31601 0.02 0 0 0 1 2
2348 1 2.11521 1.69926 0.02 0 0 0 1 2
2343 1 1.91319 1.72513 0.02 0 0 0 1 2
2344 1 1.94934 1.33266 0.02 0 0 0 1 2
2345 1 1.92892 1.52876 0.02 0 0 0 1 2
2352 1 2.55106 1.48068 0.02 0 0 0 1 2
2351 1 2.52232 1.68009 0.02 0 0 0 1 2
2350 1 2.3193 1.67815 0.02 0 0 0 1 2
2349 1 2.3478 1.48571 0.02 0 0 0 1 2
2364 1 2.29384 2.06691 0.02 0 0 0 1 2
2362 1 2.09062 2.09454 0.02 0 0 0 1 2
2361 1 2.10829 1.89614 0.02 0 0 0 1 2
2359 1 1.90326 1.92009 0.02 0 0 0 1 2
2360 1 1.88765 2.11413 0.02 0 0 0 1 2
2366 1 2.50168 2.064 0.02 0 0 0 1 2
2365 1 2.52156 1.87325 0.02 0 0 0 1 2
2363 1 2.31322 1.87263 0.02 0 0 0 1 2
2373 1 1.91084 2.30172 0.02 0 0 0 1 2
2376 1 2.11332 2.48033 0.02 0 0 0 1 2
2375 1 2.11994 2.28888 0.02 0 0 0 1 2
2374 1 1.88156 2.48427 0.02 0 0 0 1 2
2380 1 2.549 2.43803 0.02 0 -1.61104e-29 1.81674e-30 1 2
2379 1 2.53473 2.25155 0.02 0 0 0 1 2
2378 1 2.33089 2.45005 0.02 0 0 0 1 2
2377 1 2.32437 2.25853 0.02 0 0 0 1 2
454 2 2.6 9.6 0 0 0 0 1 5
455 2 2.8 9.6 0 0 0 0 1 5
2392 1 1.96695 3.01138 0.02 0 0 0 1 2
2391 1 1.95254 2.65315 0.02 0 0 0 1 2
2390 1 1.91566 2.82876 0.02 0 0 0 1 2
2395 1 2.16799 3.03992 0.02 0 0 0 1 2
2394 1 2.15394 2.85047 0.02 0 0 0 1 2
2393 1 2.16763 2.66497 0.02 0 0 0 1 2
2401 1 2.57611 3.00181 0.02 0 -1.05896e-26 -9.21929e-28 1 2
2400 1 2.59445 2.80981 0.02 0 -1.72002e-25 1.81501e-27 1 2
2399 1 2.58792 2.62061 0.02 0 -2.98796e-26 5.9402e-28 1 2
2398 1 2.38062 2.82655 0.02 0 0 0 1 2
2397 1 2.36879 3.01719 0.02 0 0 0 1 2
2396 1 2.37412 2.63626 0.02 0 0 0 1 2
488 2 2.6 9.8 0 0 0 0 1 5
2468 1 1.77722 4.96189 0.02 0 0 0 1 2
2411 1 2.19771 3.4148 0.02 0 0 0 1 2
2410 1 2.17733 3.22764 0.02 0 0 0 1 2
2409 1 1.99102 3.39844 0.02 0 0 0 1 2
2408 1 1.96034 3.20444 0.02 0 0 0 1 2
2413 1 2.40524 3.40293 0.02 0 0 0 1 2
2412 1 2.39153 3.20956 0.02 0 0 0 1 2
2415 1 2.61062 3.39198 0.02 0 -2.70574e-24 1.89931e-25 1 2
2414 1 2.59733 3.19534 0.02 0 -4.69323e-25 9.24273e-27 1 2
2470 1 1.75679 5.18165 0.02 0 0 0 1 2
2455 1 1.78746 4.7499 0.02 0 0 0 1 2
2423 1 1.90614 3.7745 0.02 0 0 0 1 2
2425 1 2.25885 3.59964 0.02 0 0 0 1 2
2424 1 2.04727 3.59397 0.02 0 0 0 1 2
2426 1 2.11568 3.78488 0.02 0 0 0 1 2
2421 1 1.84013 3.57987 0.02 0 0 0 1 2
2427 1 2.3223 3.78818 0.02 0 0 0 1 2
2430 1 2.65899 3.59134 0.02 0 -2.84562e-23 -4.3713e-24 1 2
2429 1 2.51987 3.7989 0.02 0 0 0 1 2
2428 1 2.46352 3.59667 0.02 0 0 0 1 2
489 2 2.8 9.8 0 0 0 0 1 5
452 2 2.2 9.6 0 0 0 0 1 5
2439 1 1.93496 4.17176 0.02 0 0 0 1 2
2437 1 1.90385 3.9719 0.02 0 0 0 1 2
2442 1 2.1385 4.17466 0.02 0 0 0 1 2
2440 1 2.10871 3.97949 0.02 0 0 0 1 2
2445 1 2.54628 4.19345 0.02 0 0 0 1 2
2444 1 2.52847 3.99767 0.02 0 0 0 1 2
2443 1 2.34333 4.17477 0.02 0 0 0 1 2
2441 1 2.3175 3.98174 0.02 0 0 0 1 2
2458 1 2.14891 4.57757 0.02 0 0 0 1 2
2456 1 2.14127 4.37456 0.02 0 0 0 1 2
2452 1 1.94562 4.37884 0.02 0 0 0 1 2
2454 1 1.95479 4.59118 0.02 0 0 0 1 2
2460 1 2.3306 4.77076 0.02 0 0 0 1 2
2462 1 2.54946 4.58883 0.02 0 0 0 1 2
2461 1 2.54702 4.3903 0.02 0 0 0 1 2
2459 1 2.34919 4.56951 0.02 0 0 0 1 2
2457 1 2.34209 4.37143 0.02 0 0 0 1 2
2467 1 1.9653 4.82086 0.02 0 0 0 1 2
2471 1 2.14521 4.78906 0.02 0 0 0 1 2
2472 1 2.13927 5.01453 0.02 0 0 0 1 2
2474 1 2.29183 5.19178 0.02 0 0 0 1 2
2469 1 1.95455 5.04089 0.02 0 0 0 1 2
2473 1 2.32385 4.97859 0.02 0 0 0 1 2
2477 1 2.50981 5.00813 0.02 0 0 0 1 2
2476 1 2.51865 4.79343 0.02 0 0 0 1 2
2475 1 2.47836 5.21627 0.02 0 0 0 1 2
453 2 2.4 9.6 0 0 0 0 1 5
485 2 2 9.8 0 0 0 0 1 5
2488 1 2.11273 5.24183 0.02 0 0 0 1 2
2489 1 2.09848 5.44829 0.02 0 0 0 1 2
2487 1 2.08709 5.64948 0.02 0 0 0 1 2
2491 1 2.27781 5.60025 0.02 0 0 0 1 2
2490 1 2.30421 5.40185 0.02 0 0 0 1 2
2484 1 1.89642 5.45106 0.02 0 0 0 1 2
2482 1 1.92727 5.25393 0.02 0 0 0 1 2
2486 1 1.88941 5.64819 0.02 0 0 0 1 2
2493 1 2.51131 5.41416 0.02 0 0 0 1 2
2492 1 2.47224 5.6108 0.02 0 0 0 1 2
486 2 2.2 9.8 0 0 0 0 1 5
487 2 2.4 9.8 0 0 0 0 1 5
2501 1 1.90203 6.02331 0.02 0 9.57216e-09 -2.99624e-08 1 2
2502 1 2.06873 5.83904 0.02 0 1.25221e-10 -4.00967e-10 1 2
2504 1 2.11132 6.0222 0.02 0 7.1908e-08 -1.92902e-07 1 2
2505 1 2.30826 5.98727 0.02 0 3.53196e-08 -8.61354e-08 1 2
2503 1 2.28585 5.79748 0.02 0 3.97682e-11 -1.30029e-10 1 2
2499 1 1.85628 5.83848 0.02 0 1.54804e-14 -5.07118e-14 1 2
2506 1 2.49661 5.8067 0.02 0 9.25845e-11 -2.10413e-10 1 2
2507 1 2.50766 6.00258 0.02 0 7.96015e-08 -1.60075e-07 1 2
451 2 2 9.6 0 0 0 0 1 5
2516 1 2.12005 6.20958 0.02 0 6.35577e-06 -1.20488e-05 1 2
2518 1 2.12143 6.39243 0.02 0 9.0677e-05 -0.00013867 1 2
2513 1 1.91462 6.20609 0.02 0 1.07327e-06 -2.34344e-06 1 2
2515 1 1.89969 6.38403 0.02 0 2.7956e-05 -5.77229e-05 1 2
2517 1 2.3192 6.1839 0.02 0 7.17398e-06 -1.27303e-05 1 2
2519 1 2.32182 6.38198 0.02 0 0.000131242 -0.000170121 1 2
2520 1 2.51608 6.20038 0.02 0 1.53259e-05 -2.10325e-05 1 2
2521 1 2.51385 6.40005 0.02 0 0.000247509 -0.000229775 1 2
2532 1 2.12346 6.56971 0.02 0 0.000126863 -0.000472682 1 2
2531 1 2.15223 6.745 0.02 0 -0.00326451 0.00057695 1 2
2527 1 1.92488 6.56304 0.02 0 1.61572e-05 -0.000256308 1 2
2529 1 1.94228 6.74606 0.02 0 -0.00335021 0.000652106 1 2
2530 1 2.3602 6.76717 0.02 0 -0.00296395 0.000573288 1 2
2535 1 2.53813 6.58361 0.02 0 0.000607967 -0.000666418 1 2
2534 1 2.57701 6.76409 0.02 0 -0.00167272 0.000286268 1 2
2533 1 2.33197 6.57557 0.02 0 0.000234746 -0.000510325 1 2
9 2 2 7 0 0 0 0 1.00113 5
10 2 2.2 7 0 0 0 0 1.00056 5
11 2 2.4 7 0 0 0 0 0.99945 5
43 2 2 7.2 0 0 0 0 1.00063 5
44 2 2.2 7.2 0 0 0 0 1.00152 5
45 2 2.4 7.2 0 0 0 0 1.00007 5
12 2 2.6 7 0 0 0 0 0.995198 5
13 2 2.8 7 0 0 0 0 0.986976 5
46 2 2.6 7.2 0 0 0 0 0.995649 5
47 2 2.8 7.2 0 0 0 0 0.986948 5
145 2 2 7.8 0 0 0 0 1 5
146 2 2.2 7.8 0 0 0 0 1 5
147 2 2.4 7.8 0 0 0 0 1 5
113 2 2.4 7.6 0 0 0 0 1 5
112 2 2.2 7.6 0 0 0 0 1 5
111 2 2 7.6 0 0 0 0 1 5
77 2 2 7.4 0 0 0 0 0.997481 5
78 2 2.2 7.4 0 0 0 0 1.00485 5
79 2 2.4 7.4 0 0 0 0 0.998489 5
115 2 2.8 7.6 0 0 0 0 1 5
114 2 2.6 7.6 0 0 0 0 1 5
148 2 2.6 7.8 0 0 0 0 1 5
149 2 2.8 7.8 0 0 0 0 1 5
80 2 2.6 7.4 0 0 0 0 0.998581 5
81 2 2.8 7.4 0 0 0 0 0.987083 5
214 2 2.2 8.2 0 0 0 0 1 5
213 2 2 8.2 0 0 0 0 1 5
181 2 2.4 8 0 0 0 0 1 5
180 2 2.2 8 0 0 0 0 1 5
179 2 2 8 0 0 0 0 1 5
215 2 2.4 8.2 0 0 0 0 1 5
217 2 2.8 8.2 0 0 0 0 1 5
216 2 2.6 8.2 0 0 0 0 1 5
183 2 2.8 8 0 0 0 0 1 5
182 2 2.6 8 0 0 0 0 1 5
247 2 2 8.4 0 0 0 0 1 5
248 2 2.2 8.4 0 0 0 0 1 5
249 2 2.4 8.4 0 0 0 0 1 5
281 2 2 8.6 0 0 0 0 1 5
282 2 2.2 8.6 0 0 0 0 1 5
283 2 2.4 8.6 0 0 0 0 1 5
250 2 2.6 8.4 0 0 0 0 1 5
251 2 2.8 8.4 0 0 0 0 1 5
284 2 2.6 8.6 0 0 0 0 1 5
285 2 2.8 8.6 0 0 0 0 1 5
349 2 2 9 0 0 0 0 1 5
317 2 2.4 8.8 0 0 0 0 1 5
316 2 2.2 8.8 0 0 0 0 1 5
315 2 2 8.8 0 0 0 0 1 5
351 2 2.4 9 0 0 0 0 1 5
350 2 2.2 9 0 0 0 0 1 5
318 2 2.6 8.8 0 0 0 0 1 5
319 2 2.8 8.8 0 0 0 0 1 5
352 2 2.6 9 0 0 0 0 1 5
353 2 2.8 9 0 0 0 0 1 5
383 2 2 9.2 0 0 0 0 1 5
384 2 2.2 9.2 0 0 0 0 1 5
419 2 2.4 9.4 0 0 0 0 1 5
385 2 2.4 9.2 0 0 0 0 1 5
417 2 2 9.4 0 0 0 0 1 5
418 2 2.2 9.4 0 0 0 0 1 5
386 2 2.6 9.2 0 0 0 0 1 5
387 2 2.8 9.2 0 0 0 0 1 5
420 2 2.6 9.4 0 0 0 0 1 5
421 2 2.8 9.4 0 0 0 0 1 5
2309 1 1.78859 0.730074 0.02 0 0 0 1 2
2322 1 1.8125 0.935026 0.02 0 0 0 1 2
2323 1 1.79218 1.13418 0.02 0 0 0 1 2
2389 1 1.75586 2.99621 0.02 0 0 0 1 2
2407 1 1.78767 3.38149 0.02 0 0 0 1 2
2340 1 1.74647 1.32832 0.02 0 0 0 1 2
2341 1 1.72111 1.52127 0.02 0 0 0 1 2
2514 1 1.69141 6.38626 0.02 0 1.09253e-06 -2.49427e-06 1 2
2342 1 1.71039 1.71271 0.02 0 0 0 1 2
2358 1 1.68821 2.09299 0.02 0 0 0 1 2
2357 1 1.69392 1.90235 0.02 0 0 0 1 2
2371 1 1.68577 2.28195 0.02 0 0 0 1 2
2387 1 1.69678 2.64036 0.02 0 0 0 1 2
2500 1 1.69103 6.0091 0.02 0 1.3098e-11 -4.39359e-11 1 2
2388 1 1.69284 2.8171 0.02 0 0 0 1 2
2528 1 1.73396 6.76272 0.02 0 -0.00162966 0.000534053 1 2
2485 1 1.69474 5.61046 0.02 0 0 0 1 2
2483 1 1.70935 5.40353 0.02 0 0 0 1 2
2406 1 1.75132 3.18701 0.02 0 0 0 1 2
2526 1 1.72962 6.57346 0.02 0 -3.70592e-05 -3.2973e-06 1 2
2422 1 1.69728 3.77943 0.02 0 0 0 1 2
2438 1 1.72935 4.16123 0.02 0 0 0 1 2
2436 1 1.69698 3.97068 0.02 0 0 0 1 2
2512 1 1.70138 6.1991 0.02 0 1.55171e-08 -4.9397e-08 1 2
2453 1 1.75378 4.55042 0.02 0 0 0 1 2
2451 1 1.74875 4.3547 0.02 0 0 0 1 2
2291 1 1.65917 0.320533 0.02 0 0 0 1 2
2293 1 1.65483 0.105539 0.02 0 0 0 1 2
2307 1 1.65214 0.528996 0.02 0 0 0 1 2
2498 1 1.65964 5.80954 0.02 0 0 0 1 2
2372 1 1.66701 2.46409 0.02 0 0 0 1 2
2420 1 1.63705 3.59067 0.02 0 0 0 1 2
2306 1 1.59076 0.728702 0.02 0 0 0 1 2
2465 1 1.57556 5.1407 0.02 0 0 0 1 2
2448 1 1.54946 4.35183 0.02 0 0 0 1 2
2320 1 1.61061 0.925911 0.02 0 0 0 1 2
2321 1 1.58814 1.12143 0.02 0 0 0 1 2
2339 1 1.54364 1.31688 0.02 0 0 0 1 2
2449 1 1.54714 4.55067 0.02 0 0 0 1 2
2466 1 1.58093 4.94279 0.02 0 0 0 1 2
2450 1 1.59104 4.7463 0.02 0 0 0 1 2
2404 1 1.54949 3.19806 0.02 0 0 0 1 2
2405 1 1.58779 3.39618 0.02 0 0 0 1 2
2525 1 1.53625 6.73857 0.02 0 -5.67212e-05 2.15499e-05 1 2
2432 1 1.4925 3.95088 0.02 0 0 0 1 2
2419 1 1.48167 3.75439 0.02 0 0 0 1 2
2434 1 1.52345 4.15098 0.02 0 0 0 1 2
2523 1 1.53095 6.55154 0.02 0 -6.37813e-08 7.55661e-09 1 2
2337 1 1.51645 1.51418 0.02 0 0 0 1 2
2338 1 1.50696 1.71282 0.02 0 0 0 1 2
2479 1 1.53483 5.34326 0.02 0 0 0 1 2
2509 1 1.4926 6.17564 0.02 0 0 0 1 2
2355 1 1.48225 1.90792 0.02 0 0 0 1 2
2356 1 1.48954 2.10177 0.02 0 0 0 1 2
2511 1 1.48697 6.36341 0.02 0 0 0 1 2
2481 1 1.50774 5.56701 0.02 0 0 0 1 2
2495 1 1.47295 5.7821 0.02 0 0 0 1 2
2497 1 1.48316 5.98504 0.02 0 0 0 1 2
2386 1 1.5418 2.99988 0.02 0 0 0 1 2
2385 1 1.48366 2.80866 0.02 0 0 0 1 2
1583 2 3.2 -9.6 0 0 0 0 1 5
1582 2 3 -9.6 0 0 0 0 1 5
1549 2 3.2 -9.8 0 0 0 0 1 5
1548 2 3 -9.8 0 0 0 0 1 5
1515 2 3.2 -10 0 0 0 0 1 5
1514 2 3 -10 0 0 0 0 1 5
1584 2 3.4 -9.6 0 0 0 0 1 5
1550 2 3.4 -9.8 0 0 0 0 1 5
1516 2 3.4 -10 0 0 0 0 1 5
1501 2 3.5996 -10 0.02 0 0 0 1 5
1535 2 3.5996 -9.8 0.02 0 0 0 1 5
1569 2 3.5996 -9.6 0.02 0 0 0 1 5
1504 2 4.1996 -10 0.02 0 0 0 1 5
1538 2 4.1996 -9.8 0.02 0 0 0 1 5
1572 2 4.1996 -9.6 0.02 0 0 0 1 5
1503 2 3.9996 -10 0.02 0 0 0 1 5
1537 2 3.9996 -9.8 0.02 0 0 0 1 5
1571 2 3.9996 -9.6 0.02 0 0 0 1 5
1502 2 3.7996 -10 0.02 0 0 0 1 5
1536 2 3.7996 -9.8 0.02 0 0 0 1 5
1570 2 3.7996 -9.6 0.02 0 0 0 1 5
1586 2 3.8 -9.6 0 0 0 0 1 5
1585 2 3.6 -9.6 0 0 0 0 1 5
1552 2 3.8 -9.8 0 0 0 0 1 5
1551 2 3.6 -9.8 0 0 0 0 1 5
1518 2 3.8 -10 0 0 0 0 1 5
1517 2 3.6 -10 0 0 0 0 1 5
2108 1 3.21302 -2.0009 0.02 0 2.2368e-25 -2.01511e-24 1 2
2206 1 3.20237 -5.39266 0.02 0 -1.36294e-12 -9.49578e-16 1 2
2157 1 3.21371 -6.73915 0.02 0 -0.00279193 -0.000446172 1 2
1505 2 4.3996 -10 0.02 0 0 0 1 5
1539 2 4.3996 -9.8 0.02 0 0 0 1 5
1573 2 4.3996 -9.6 0.02 0 0 0 1 5
1588 2 4.2 -9.6 0 0 0 0 1 5
1587 2 4 -9.6 0 0 0 0 1 5
1554 2 4.2 -9.8 0 0 0 0 1 5
1553 2 4 -9.8 0 0 0 0 1 5
1520 2 4.2 -10 0 0 0 0 1 5
1519 2 4 -10 0 0 0 0 1 5
1616 2 3 -9.4 0 0 0 0 1 5
1617 2 3.2 -9.4 0 0 0 0 1 5
1651 2 3.2 -9.2 0 0 0 0 1 5
1650 2 3 -9.2 0 0 0 0 1 5
1652 2 3.4 -9.2 0 0 0 0 1 5
1618 2 3.4 -9.4 0 0 0 0 1 5
1603 2 3.5996 -9.4 0.02 0 0 0 1 5
1637 2 3.5996 -9.2 0.02 0 0 0 1 5
1640 2 4.1996 -9.2 0.02 0 0 0 1 5
1606 2 4.1996 -9.4 0.02 0 0 0 1 5
1639 2 3.9996 -9.2 0.02 0 0 0 1 5
1605 2 3.9996 -9.4 0.02 0 0 0 1 5
1638 2 3.7996 -9.2 0.02 0 0 0 1 5
1604 2 3.7996 -9.4 0.02 0 0 0 1 5
1653 2 3.6 -9.2 0 0 0 0 1 5
1654 2 3.8 -9.2 0 0 0 0 1 5
1620 2 3.8 -9.4 0 0 0 0 1 5
1619 2 3.6 -9.4 0 0 0 0 1 5
2139 1 3.25943 -2.62755 0.02 0 -3.17997e-20 1.57722e-20 1 2
2155 1 3.23213 -3.25575 0.02 0 -1.14129e-19 -2.38739e-20 1 2
1641 2 4.3996 -9.2 0.02 0 0 0 1 5
1607 2 4.3996 -9.4 0.02 0 0 0 1 5
1622 2 4.2 -9.4 0 0 0 0 1 5
1655 2 4 -9.2 0 0 0 0 1 5
1656 2 4.2 -9.2 0 0 0 0 1 5
1621 2 4 -9.4 0 0 0 0 1 5
1719 2 3.2 -8.8 0 0 0 0 1 5
1718 2 3 -8.8 0 0 0 0 1 5
1685 2 3.2 -9 0 0 0 0 1 5
1684 2 3 -9 0 0 0 0 1 5
1686 2 3.4 -9 0 0 0 0 1 5
1720 2 3.4 -8.8 0 0 0 0 1 5
1705 2 3.5996 -8.8 0.02 0 0 0 1 5
1671 2 3.5996 -9 0.02 0 0 0 1 5
1674 2 4.1996 -9 0.02 0 0 0 1 5
1708 2 4.1996 -8.8 0.02 0 0 0 1 5
1673 2 3.9996 -9 0.02 0 0 0 1 5
1707 2 3.9996 -8.8 0.02 0 0 0 1 5
1672 2 3.7996 -9 0.02 0 0 0 1 5
1706 2 3.7996 -8.8 0.02 0 0 0 1 5
1687 2 3.6 -9 0 0 0 0 1 5
1688 2 3.8 -9 0 0 0 0 1 5
1721 2 3.6 -8.8 0 0 0 0 1 5
1722 2 3.8 -8.8 0 0 0 0 1 5
2156 1 3.23146 -3.47088 0.02 0 -5.35873e-20 -1.01935e-20 1 2
2059 1 3.22432 -0.609091 0.02 0 -1.11534e-19 1.97574e-20 1 2
1675 2 4.3996 -9 0.02 0 0 0 1 5
1709 2 4.3996 -8.8 0.02 0 0 0 1 5
1689 2 4 -9 0 0 0 0 1 5
1690 2 4.2 -9 0 0 0 0 1 5
1723 2 4 -8.8 0 0 0 0 1 5
1724 2 4.2 -8.8 0 0 0 0 1 5
1752 2 3 -8.6 0 0 0 0 1 5
1753 2 3.2 -8.6 0 0 0 0 1 5
1786 2 3 -8.4 0 0 0 0 1 5
1787 2 3.2 -8.4 0 0 0 0 1 5
1754 2 3.4 -8.6 0 0 0 0 1 5
1788 2 3.4 -8.4 0 0 0 0 1 5
1739 2 3.5996 -8.6 0.02 0 0 0 1 5
1773 2 3.5996 -8.4 0.02 0 0 0 1 5
1776 2 4.1996 -8.4 0.02 0 0 0 1 5
1742 2 4.1996 -8.6 0.02 0 0 0 1 5
1775 2 3.9996 -8.4 0.02 0 0 0 1 5
1741 2 3.9996 -8.6 0.02 0 0 0 1 5
1774 2 3.7996 -8.4 0.02 0 0 0 1 5
1740 2 3.7996 -8.6 0.02 0 0 0 1 5
1755 2 3.6 -8.6 0 0 0 0 1 5
1756 2 3.8 -8.6 0 0 0 0 1 5
1789 2 3.6 -8.4 0 0 0 0 1 5
1790 2 3.8 -8.4 0 0 0 0 1 5
2060 1 3.24472 -0.808962 0.02 0 -8.18323e-20 2.86269e-21 1 2
2273 1 3.24567 -3.68365 0.02 0 -1.48678e-20 -7.3097e-21 1 2
1777 2 4.3996 -8.4 0.02 0 0 0 1 5
1743 2 4.3996 -8.6 0.02 0 0 0 1 5
1757 2 4 -8.6 0 0 0 0 1 5
1758 2 4.2 -8.6 0 0 0 0 1 5
1791 2 4 -8.4 0 0 0 0 1 5
1792 2 4.2 -8.4 0 0 0 0 1 5
1820 2 3 -8.2 0 0 0 0 1 5
1821 2 3.2 -8.2 0 0 0 0 1 5
1854 2 3 -8 0 0 0 0 1 5
1855 2 3.2 -8 0 0 0 0 1 5
1822 2 3.4 -8.2 0 0 0 0 1 5
1856 2 3.4 -8 0 0 0 0 1 5
1807 2 3.5996 -8.2 0.02 0 0 0 1 5
1841 2 3.5996 -8 0.02 0 0 0 1 5
1844 2 4.1996 -8 0.02 0 0 0 1 5
1810 2 4.1996 -8.2 0.02 0 0 0 1 5
1843 2 3.9996 -8 0.02 0 0 0 1 5