ITEM: TIMESTEP
44000
ITEM: NUMBER OF ATOMS
1173
ITEM: BOX BOUNDS ff ff pp
0.0000000000000000e+00 4.4000000000000004e+00
-1.0000000000000000e+01 1.0000000000000000e+01
-2.0000000000000000e-02 2.0000000000000000e-02
ITEM: ATOMS id type x y vx vy fx fy c_den c_phase
1509 2 2 -10 0 0 0 0 1 5
1510 2 2.2 -10 0 0 0 0 1 5
1511 2 2.4 -10 0 0 0 0 1 5
1543 2 2 -9.8 0 0 0 0 1 5
1544 2 2.2 -9.8 0 0 0 0 1 5
1545 2 2.4 -9.8 0 0 0 0 1 5
1577 2 2 -9.6 0 0 0 0 1 5
1578 2 2.2 -9.6 0 0 0 0 1 5
1579 2 2.4 -9.6 0 0 0 0 1 5
1512 2 2.6 -10 0 0 0 0 1 5
1513 2 2.8 -10 0 0 0 0 1 5
1546 2 2.6 -9.8 0 0 0 0 1 5
1547 2 2.8 -9.8 0 0 0 0 1 5
1580 2 2.6 -9.6 0 0 0 0 1 5
1581 2 2.8 -9.6 0 0 0 0 1 5
1645 2 2 -9.2 0 0 0 0 1 5
1646 2 2.2 -9.2 0 0 0 0 1 5
1647 2 2.4 -9.2 0 0 0 0 1 5
1613 2 2.4 -9.4 0 0 0 0 1 5
1612 2 2.2 -9.4 0 0 0 0 1 5
1611 2 2 -9.4 0 0 0 0 1 5
1648 2 2.6 -9.2 0 0 0 0 1 5
1649 2 2.8 -9.2 0 0 0 0 1 5
1615 2 2.8 -9.4 0 0 0 0 1 5
1614 2 2.6 -9.4 0 0 0 0 1 5
1679 2 2 -9 0 0 0 0 1 5
1680 2 2.2 -9 0 0 0 0 1 5
1681 2 2.4 -9 0 0 0 0 1 5
1713 2 2 -8.8 0 0 0 0 1 5
1714 2 2.2 -8.8 0 0 0 0 1 5
1715 2 2.4 -8.8 0 0 0 0 1 5
1682 2 2.6 -9 0 0 0 0 1 5
1683 2 2.8 -9 0 0 0 0 1 5
1716 2 2.6 -8.8 0 0 0 0 1 5
1717 2 2.8 -8.8 0 0 0 0 1 5
1783 2 2.4 -8.4 0 0 0 0 1 5
1782 2 2.2 -8.4 0 0 0 0 1 5
1781 2 2 -8.4 0 0 0 0 1 5
1747 2 2 -8.6 0 0 0 0 1 5
1748 2 2.2 -8.6 0 0 0 0 1 5
1749 2 2.4 -8.6 0 0 0 0 1 5
1785 2 2.8 -8.4 0 0 0 0 1 5
1784 2 2.6 -8.4 0 0 0 0 1 5
1750 2 2.6 -8.6 0 0 0 0 1 5
1751 2 2.8 -8.6 0 0 0 0 1 5
1851 2 2.4 -8 0 0 0 0 1 5
1850 2 2.2 -8 0 0 0 0 1 5
1849 2 2 -8 0 0 0 0 1 5
1817 2 2.4 -8.2 0 0 0 0 1 5
1816 2 2.2 -8.2 0 0 0 0 1 5
1815 2 2 -8.2 0 0 0 0 1 5
1853 2 2.8 -8 0 0 0 0 1 5
1852 2 2.6 -8 0 0 0 0 1 5
1819 2 2.8 -8.2 0 0 0 0 1 5
1818 2 2.6 -8.2 0 0 0 0 1 5
1953 2 2.4 -7.4 0 0 0 0 1.00244 5
1952 2 2.2 -7.4 0 0 0 0 0.999329 5
1951 2 2 -7.4 0 0 0 0 0.999511 5
1919 2 2.4 -7.6 0 0 0 0 1 5
1918 2 2.2 -7.6 0 0 0 0 1 5
1917 2 2 -7.6 0 0 0 0 1 5
1885 2 2.4 -7.8 0 0 0 0 1 5
1884 2 2.2 -7.8 0 0 0 0 1 5
1883 2 2 -7.8 0 0 0 0 1 5
1955 2 2.8 -7.4 0 0 0 0 0.997344 5
1954 2 2.6 -7.4 0 0 0 0 0.99959 5
1921 2 2.8 -7.6 0 0 0 0 1 5
1920 2 2.6 -7.6 0 0 0 0 1 5
1887 2 2.8 -7.8 0 0 0 0 1 5
1886 2 2.6 -7.8 0 0 0 0 1 5
2021 2 2.4 -7 0 0 0 0 1.00034 5
2020 2 2.2 -7 0 0 0 0 0.999608 5
2019 2 2 -7 0 0 0 0 1.00134 5
1987 2 2.4 -7.2 0 0 0 0 1.00126 5
1986 2 2.2 -7.2 0 0 0 0 0.999398 5
1985 2 2 -7.2 0 0 0 0 1.00086 5
2023 2 2.8 -7 0 0 0 0 0.998916 5
2022 2 2.6 -7 0 0 0 0 0.99993 5
1989 2 2.8 -7.2 0 0 0 0 0.998448 5
1988 2 2.6 -7.2 0 0 0 0 0.99986 5
4191 1 2.18777 -6.73868 0.02 0 -0.00279054 -0.000487495 1 2
4193 1 2.14944 -6.55789 0.02 0 0.000339448 0.000624802 1 2
4190 1 1.99236 -6.74376 0.02 0 -0.00287924 -0.000474021 1 2
4192 1 1.94494 -6.55905 0.02 0 0.00058686 0.000813944 1 2
4196 1 2.35378 -6.54776 0.02 0 0.000286405 0.000504858 1 2
4194 1 2.38341 -6.73962 0.02 0 -0.00282175 -0.000553423 1 2
4197 1 2.54911 -6.57768 0.02 0 0.000197035 0.000514485 1 2
4195 1 2.59313 -6.76082 0.02 0 -0.00311564 -0.000497223 1 2
4200 1 2.74552 -6.55109 0.02 0 0.000246921 0.000469207 1 2
4198 1 2.79388 -6.73736 0.02 0 -0.00236605 -0.000547469 1 2
4201 1 2.94615 -6.56038 0.02 0 0.00046486 0.000634937 1 2
4187 1 1.66018 -2.97151 0.02 0 0 0 1 2
4206 1 2.18711 -6.37301 0.02 0 8.4417e-05 0.000142982 1 2
4208 1 2.16489 -6.17868 0.02 0 3.81052e-06 8.69239e-06 1 2
4205 1 1.98614 -6.37279 0.02 0 7.54401e-05 0.000134929 1 2
4207 1 1.97108 -6.17854 0.02 0 1.40951e-06 4.87669e-06 1 2
4209 1 2.37955 -6.34968 0.02 0 7.39449e-05 0.000112803 1 2
4212 1 2.56296 -6.18703 0.02 0 5.8622e-06 1.18161e-05 1 2
4211 1 2.36258 -6.15582 0.02 0 3.42526e-06 6.97377e-06 1 2
4210 1 2.56643 -6.38741 0.02 0 0.000106379 0.000157305 1 2
4215 1 2.76355 -6.16656 0.02 0 4.0363e-06 8.75518e-06 1 2
4213 1 2.75769 -6.35636 0.02 0 8.22369e-05 0.000112745 1 2
4214 1 2.95422 -6.37526 0.02 0 0.000121072 0.000166938 1 2
4216 1 2.96527 -6.18666 0.02 0 3.82089e-06 1.52812e-05 1 2
4222 1 2.19762 -5.97288 0.02 0 1.02447e-08 5.19858e-08 1 2
4224 1 2.21915 -5.76461 0.02 0 1.92068e-12 1.40629e-11 1 2
4223 1 2.0212 -5.77886 0.02 0 1.7471e-12 2.79225e-11 1 2
4221 1 2.00843 -5.98028 0.02 0 6.09246e-09 5.11005e-08 1 2
4219 1 1.82005 -5.97061 0.02 0 1.71533e-09 9.13803e-09 1 2
4220 1 1.8297 -5.7563 0.02 0 4.0164e-14 3.56927e-13 1 2
4227 1 2.41955 -5.77335 0.02 0 3.08271e-12 1.42038e-11 1 2
4225 1 2.39175 -5.96398 0.02 0 7.83727e-09 3.67995e-08 1 2
4228 1 2.62181 -5.80768 0.02 0 2.51628e-11 1.90823e-10 1 2
4226 1 2.59217 -5.99492 0.02 0 3.00801e-08 1.12591e-07 1 2
4203 1 1.60427 -6.14001 0.02 0 0 0 1 2
4104 1 1.63826 -0.498796 0.02 0 0 0 1 2
4231 1 2.83608 -5.81042 0.02 0 3.79805e-11 1.1459e-10 1 2
4229 1 2.81219 -5.98893 0.02 0 2.4087e-08 1.17932e-07 1 2
4238 1 2.26003 -5.56123 0.02 0 0 0 1 2
4239 1 2.09778 -5.36188 0.02 0 0 0 1 2
4237 1 2.0664 -5.57536 0.02 0 0 0 1 2
4235 1 1.88048 -5.54901 0.02 0 0 0 1 2
4236 1 1.90996 -5.33819 0.02 0 0 0 1 2
4242 1 2.67101 -5.6254 0.02 0 0 0 1 2
4244 1 2.6846 -5.43659 0.02 0 0 0 1 2
4245 1 2.71044 -5.24105 0.02 0 0 0 1 2
4241 1 2.46129 -5.58549 0.02 0 0 0 1 2
4243 1 2.48752 -5.39151 0.02 0 0 0 1 2
4240 1 2.29157 -5.36116 0.02 0 0 0 1 2
4248 1 2.91033 -5.25341 0.02 0 0 0 1 2
4247 1 2.89118 -5.44493 0.02 0 0 0 1 2
4246 1 2.88783 -5.63311 0.02 0 0 0 1 2
4254 1 2.17063 -4.95315 0.02 0 0 0 1 2
4253 1 2.1288 -5.15335 0.02 0 0 0 1 2
4252 1 1.97168 -4.92745 0.02 0 0 0 1 2
4251 1 1.93699 -5.12959 0.02 0 0 0 1 2
4258 1 2.56377 -4.99741 0.02 0 0 0 1 2
4255 1 2.32518 -5.16139 0.02 0 0 0 1 2
4257 1 2.51921 -5.1935 0.02 0 0 0 1 2
4256 1 2.36928 -4.96268 0.02 0 0 0 1 2
4259 1 2.59484 -4.80027 0.02 0 0 0 1 2
4260 1 2.75552 -5.04121 0.02 0 0 0 1 2
4261 1 2.7897 -4.83706 0.02 0 0 0 1 2
4263 1 2.98243 -4.86294 0.02 0 0 0 1 2
4262 1 2.95412 -5.06154 0.02 0 0 0 1 2
4267 1 2.18533 -4.75478 0.02 0 0 0 1 2
4269 1 2.20381 -4.55712 0.02 0 0 0 1 2
4270 1 2.21595 -4.35425 0.02 0 0 0 1 2
4266 1 1.98006 -4.7287 0.02 0 0 0 1 2
4268 1 2.00289 -4.53358 0.02 0 0 0 1 2
4273 1 2.41175 -4.36274 0.02 0 0 0 1 2
4272 1 2.40352 -4.56589 0.02 0 0 0 1 2
4271 1 2.39258 -4.76495 0.02 0 0 0 1 2
4275 1 2.60395 -4.39499 0.02 0 0 0 1 2
4274 1 2.60121 -4.60022 0.02 0 0 0 1 2
4277 1 2.79593 -4.42334 0.02 0 0 0 1 2
4276 1 2.79816 -4.63033 0.02 0 0 0 1 2
4279 1 2.9853 -4.44793 0.02 0 0 0 1 2
4122 1 1.61522 -1.24645 0.02 0 0 0 1 2
4289 1 2.22084 -4.14825 0.02 0 0 0 1 2
4290 1 2.21545 -3.94283 0.02 0 0 0 1 2
4286 1 2.01698 -4.33796 0.02 0 0 0 1 2
4287 1 2.02622 -4.1395 0.02 0 0 0 1 2
4288 1 2.01803 -3.93728 0.02 0 0 0 1 2
4285 1 1.82953 -4.12904 0.02 0 0 0 1 2
4284 1 1.81581 -3.93422 0.02 0 0 0 1 2
4283 1 1.81222 -4.32599 0.02 0 0 0 1 2
4292 1 2.40845 -3.95193 0.02 0 0 0 1 2
4291 1 2.41426 -4.15779 0.02 0 0 0 1 2
4294 1 2.59617 -3.95828 0.02 0 0 0 1 2
4293 1 2.60343 -4.1814 0.02 0 0 0 1 2
4296 1 2.77899 -4.00622 0.02 0 0 0 1 2
4295 1 2.79114 -4.21547 0.02 0 0 0 1 2
4298 1 2.96871 -4.01321 0.02 0 0 0 1 2
4297 1 2.97747 -4.23127 0.02 0 0 0 1 2
4303 1 2.18538 -3.74195 0.02 0 0 0 1 2
4304 1 2.18262 -3.54369 0.02 0 0 0 1 2
4301 1 1.9871 -3.73511 0.02 0 0 0 1 2
4302 1 1.9807 -3.53322 0.02 0 0 0 1 2
4306 1 2.38418 -3.54222 0.02 0 0 0 1 2
4305 1 2.38281 -3.74597 0.02 0 0 0 1 2
4308 1 2.58542 -3.53977 0.02 0 0 0 1 2
4307 1 2.57758 -3.74206 0.02 0 0 0 1 2
4309 1 2.76695 -3.79001 0.02 0 0 0 1 2
4310 1 2.78398 -3.58102 0.02 0 0 0 1 2
4217 1 1.6393 -5.9255 0.02 0 0 0 1 2
4311 1 2.96123 -3.80685 0.02 0 0 0 1 2
4317 1 2.16468 -3.34465 0.02 0 0 0 1 2
4318 1 2.13503 -3.14456 0.02 0 0 0 1 2
4315 1 1.96801 -3.33242 0.02 0 0 0 1 2
4316 1 1.92831 -3.1386 0.02 0 0 0 1 2
4320 1 2.33641 -3.14248 0.02 0 0 0 1 2
4319 1 2.36118 -3.34102 0.02 0 0 0 1 2
4322 1 2.5383 -3.14374 0.02 0 0 0 1 2
4321 1 2.56017 -3.34061 0.02 0 0 0 1 2
4324 1 2.74164 -3.17081 0.02 0 0 0 1 2
4323 1 2.76168 -3.37335 0.02 0 0 0 1 2
4326 1 2.94321 -3.21224 0.02 0 0 0 1 2
4325 1 2.96285 -3.41282 0.02 0 0 0 1 2
4181 1 2.25599 -2.76974 0.02 0 0 0 1 2
4183 1 2.08477 -2.95552 0.02 0 0 0 1 2
4182 1 2.0438 -2.76904 0.02 0 0 0 1 2
4185 1 1.86595 -2.95471 0.02 0 0 0 1 2
4184 1 1.83087 -2.76671 0.02 0 0 0 1 2
4180 1 2.30625 -2.9526 0.02 0 0 0 1 2
4179 1 2.52647 -2.95253 0.02 0 0 0 1 2
4177 1 2.68693 -2.78378 0.02 0 0 0 1 2
4178 1 2.46945 -2.77054 0.02 0 0 0 1 2
4176 1 2.73893 -2.97419 0.02 0 0 0 1 2
4175 1 2.94657 -3.0155 0.02 0 0 0 1 2
4173 1 2.91334 -2.63085 0.02 0 0 0 1 2
4174 1 2.90273 -2.81954 0.02 0 0 0 1 2
4164 1 2.24063 -2.58308 0.02 0 0 0 1 2
4167 1 2.17397 -2.40325 0.02 0 0 0 1 2
4165 1 2.09689 -2.22235 0.02 0 0 0 1 2
4169 1 2.02119 -2.57956 0.02 0 0 0 1 2
4168 1 1.95187 -2.39382 0.02 0 0 0 1 2
4166 1 1.88228 -2.20619 0.02 0 0 0 1 2
4170 1 1.80767 -2.57686 0.02 0 0 0 1 2
4162 1 2.40783 -2.40871 0.02 0 0 0 1 2
4161 1 2.6302 -2.4201 0.02 0 0 0 1 2
4159 1 2.58552 -2.24526 0.02 0 0 0 1 2
4160 1 2.32513 -2.24618 0.02 0 0 0 1 2
4158 1 2.69101 -2.59804 0.02 0 0 0 1 2
4163 1 2.46543 -2.58621 0.02 0 0 0 1 2
4156 1 2.83249 -2.26931 0.02 0 0 0 1 2
4218 1 1.64518 -5.71264 0.02 0 0 0 1 2
4157 1 2.85878 -2.45109 0.02 0 0 0 1 2
4146 1 2.28899 -1.88635 0.02 0 0 0 1 2
4151 1 2.1097 -2.03552 0.02 0 0 0 1 2
4149 1 2.07124 -1.8448 0.02 0 0 0 1 2
4152 1 1.89215 -2.01605 0.02 0 0 0 1 2
4150 1 1.85993 -1.82759 0.02 0 0 0 1 2
4147 1 2.54363 -2.06957 0.02 0 0 0 1 2
4145 1 2.50588 -1.88483 0.02 0 0 0 1 2
4148 1 2.33242 -2.06858 0.02 0 0 0 1 2
4144 1 2.76454 -2.09503 0.02 0 0 0 1 2
4142 1 2.72146 -1.90734 0.02 0 0 0 1 2
4143 1 2.98256 -2.09418 0.02 0 -3.86858e-26 -1.79443e-27 1 2
4141 1 2.93227 -1.90292 0.02 0 0 0 1 2
4132 1 2.26185 -1.32115 0.02 0 0 0 1 2
4133 1 2.26621 -1.51462 0.02 0 0 0 1 2
4134 1 2.23674 -1.70025 0.02 0 0 0 1 2
4135 1 2.06107 -1.4638 0.02 0 0 0 1 2
4137 1 2.02024 -1.65096 0.02 0 0 0 1 2
4136 1 1.84867 -1.45465 0.02 0 0 0 1 2
4138 1 1.80553 -1.64077 0.02 0 0 0 1 2
4131 1 2.45462 -1.70275 0.02 0 0 0 1 2
4130 1 2.48037 -1.51812 0.02 0 0 0 1 2
4129 1 2.47138 -1.32789 0.02 0 0 0 1 2
4128 1 2.67482 -1.71679 0.02 0 0 0 1 2
4127 1 2.69103 -1.52374 0.02 0 0 0 1 2
4126 1 2.67684 -1.32691 0.02 0 0 0 1 2
4125 1 2.88688 -1.7141 0.02 0 0 0 1 2
4124 1 2.90176 -1.52274 0.02 0 0 0 1 2
4123 1 2.87861 -1.32772 0.02 0 0 0 1 2
4111 1 2.28521 -0.914924 0.02 0 0 0 1 2
4116 1 2.09832 -1.0892 0.02 0 0 0 1 2
4115 1 2.08529 -0.893822 0.02 0 0 0 1 2
4118 1 2.0467 -1.27452 0.02 0 0 0 1 2
4117 1 1.89109 -1.08101 0.02 0 0 0 1 2
4114 1 1.88131 -0.883943 0.02 0 0 0 1 2
4119 1 1.82775 -1.26511 0.02 0 0 0 1 2
4110 1 2.48188 -0.926908 0.02 0 0 0 1 2
4108 1 2.67992 -0.924728 0.02 0 0 0 1 2
4109 1 2.68533 -1.12654 0.02 0 0 0 1 2
4112 1 2.48819 -1.13027 0.02 0 0 0 1 2
4113 1 2.29281 -1.12456 0.02 0 0 0 1 2
4107 1 2.88281 -1.12585 0.02 0 0 0 1 2
4106 1 2.87878 -0.922544 0.02 0 0 0 1 2
4099 1 2.26192 -0.704063 0.02 0 0 0 1 2
4098 1 2.249 -0.499468 0.02 0 0 0 1 2
4100 1 2.04708 -0.491176 0.02 0 0 0 1 2
4102 1 2.06769 -0.694672 0.02 0 0 0 1 2
4101 1 1.8448 -0.481695 0.02 0 0 0 1 2
4103 1 1.87109 -0.682318 0.02 0 0 0 1 2
4094 1 2.63986 -0.508238 0.02 0 0 0 1 2
4095 1 2.64153 -0.719476 0.02 0 0 0 1 2
4097 1 2.45199 -0.72061 0.02 0 0 0 1 2
4096 1 2.44727 -0.51103 0.02 0 0 0 1 2
4186 1 1.62069 -2.77829 0.02 0 0 0 1 2
4153 1 1.64468 -1.82201 0.02 0 0 0 1 2
4091 1 2.8331 -0.512922 0.02 0 0 0 1 2
4093 1 2.83249 -0.718408 0.02 0 0 0 1 2
4084 1 2.16744 -0.0964376 0.02 0 0 0 1 2
4083 1 2.20971 -0.299114 0.02 0 0 0 1 2
4085 1 2.01319 -0.283804 0.02 0 0 0 1 2
4086 1 1.96949 -0.0724624 0.02 0 0 0 1 2
4087 1 1.81871 -0.280143 0.02 0 0 0 1 2
4077 1 2.76059 -0.115651 0.02 0 0 0 1 2
4080 1 2.5607 -0.0929741 0.02 0 0 0 1 2
4082 1 2.36433 -0.0965164 0.02 0 0 0 1 2
4081 1 2.40587 -0.304242 0.02 0 0 0 1 2
4079 1 2.59881 -0.298935 0.02 0 0 0 1 2
4280 1 1.60085 -4.34395 0.02 0 0 0 1 2
4078 1 2.96212 -0.123972 0.02 0 0 0 1 2
4076 1 2.79656 -0.312822 0.02 0 0 0 1 2
4188 1 1.79102 -6.74338 0.02 0 -0.00490823 -0.00201778 1 2
4189 1 1.74849 -6.5613 0.02 0 -4.98651e-05 -1.53125e-05 1 2
4088 1 1.77392 -0.0795721 0.02 0 0 0 1 2
4202 1 1.78099 -6.37302 0.02 0 1.13181e-05 9.43585e-06 1 2
4204 1 1.78328 -6.17699 0.02 0 5.17193e-07 1.28847e-06 1 2
4249 1 1.74529 -5.10115 0.02 0 0 0 1 2
4250 1 1.76806 -4.90474 0.02 0 0 0 1 2
4264 1 1.77447 -4.71094 0.02 0 0 0 1 2
4265 1 1.79742 -4.51876 0.02 0 0 0 1 2
4300 1 1.77884 -3.5496 0.02 0 0 0 1 2
4299 1 1.78575 -3.74318 0.02 0 0 0 1 2
4313 1 1.7723 -3.3537 0.02 0 0 0 1 2
4172 1 1.73456 -2.39263 0.02 0 0 0 1 2
4105 1 1.67151 -0.689049 0.02 0 0 0 1 2
4233 1 1.69651 -5.50855 0.02 0 0 0 1 2
4234 1 1.72022 -5.3037 0.02 0 0 0 1 2
4171 1 1.67445 -2.20346 0.02 0 0 0 1 2
4314 1 1.72353 -3.1616 0.02 0 0 0 1 2
4154 1 1.67537 -2.01108 0.02 0 0 0 1 2
4120 1 1.67315 -0.880388 0.02 0 0 0 1 2
4121 1 1.67688 -1.06698 0.02 0 0 0 1 2
4089 1 1.62243 -0.305215 0.02 0 0 0 1 2
4282 1 1.6099 -3.96594 0.02 0 0 0 1 2
4140 1 1.60231 -1.62788 0.02 0 0 0 1 2
4139 1 1.63178 -1.43625 0.02 0 0 0 1 2
4281 1 1.63034 -4.15656 0.02 0 0 0 1 2
4082 1 2.27587 0.318924 0.02 0 0 0 1 2
4080 1 2.12353 0.109445 0.02 0 0 0 1 2
4079 1 2.08223 0.32238 0.02 0 0 0 1 2
4077 1 1.93029 0.140437 0.02 0 0 0 1 2
4078 1 1.88917 0.351439 0.02 0 0 0 1 2
4085 1 2.69487 0.268434 0.02 0 0 0 1 2
4083 1 2.5208 0.103792 0.02 0 0 0 1 2
4081 1 2.31835 0.1108 0.02 0 0 0 1 2
4084 1 2.47893 0.296989 0.02 0 0 0 1 2
4086 1 2.73334 0.0798153 0.02 0 0 0 1 2
4088 1 2.91388 0.265214 0.02 0 0 0 1 2
4087 1 2.93828 0.0733289 0.02 0 0 0 1 2
4095 1 2.25166 0.526829 0.02 0 0 0 1 2
4096 1 2.25783 0.727817 0.02 0 0 0 1 2
4093 1 2.05776 0.537004 0.02 0 0 0 1 2
4094 1 2.05624 0.747367 0.02 0 0 0 1 2
4091 1 1.86504 0.559983 0.02 0 0 0 1 2
4092 1 1.85746 0.764451 0.02 0 0 0 1 2
4100 1 2.65837 0.458467 0.02 0 0 0 1 2
4101 1 2.67705 0.651907 0.02 0 0 0 1 2
4098 1 2.4673 0.684385 0.02 0 0 0 1 2
4097 1 2.45117 0.491928 0.02 0 0 0 1 2
4099 1 2.62554 0.855954 0.02 0 0 0 1 2
4103 1 2.88673 0.643349 0.02 0 0 0 1 2
4102 1 2.86819 0.450854 0.02 0 0 0 1 2
4104 1 2.82347 0.835657 0.02 0 0 0 1 2
4200 1 1.65366 3.55878 0.02 0 0 0 1 2
4112 1 2.24013 0.935526 0.02 0 0 0 1 2
4113 1 2.21104 1.15576 0.02 0 0 0 1 2
4110 1 2.05195 0.958969 0.02 0 0 0 1 2
4111 1 2.02467 1.17493 0.02 0 0 0 1 2
4108 1 1.86117 0.968169 0.02 0 0 0 1 2
4109 1 1.83822 1.17329 0.02 0 0 0 1 2
4115 1 2.39584 1.099 0.02 0 0 0 1 2
4114 1 2.43166 0.886083 0.02 0 0 0 1 2
4117 1 2.57986 1.29605 0.02 0 0 0 1 2
4116 1 2.58416 1.0759 0.02 0 0 0 1 2
4119 1 2.76464 1.24594 0.02 0 0 0 1 2
4118 1 2.77332 1.03697 0.02 0 0 0 1 2
4121 1 2.97083 1.04754 0.02 0 -9.14276e-25 2.90903e-26 1 2
4120 1 2.96075 1.24317 0.02 0 0 0 1 2
4128 1 2.18217 1.59281 0.02 0 0 0 1 2
4129 1 2.21058 1.37266 0.02 0 0 0 1 2
4126 1 2.02384 1.38823 0.02 0 0 0 1 2
4127 1 1.99021 1.59472 0.02 0 0 0 1 2
4125 1 1.83364 1.38065 0.02 0 0 0 1 2
4133 1 2.56775 1.73443 0.02 0 0 0 1 2
4132 1 2.5573 1.51884 0.02 0 0 0 1 2
4130 1 2.3934 1.31158 0.02 0 0 0 1 2
4134 1 2.37449 1.73592 0.02 0 0 0 1 2
4131 1 2.36848 1.52866 0.02 0 0 0 1 2
4137 1 2.75084 1.6836 0.02 0 0 0 1 2
4135 1 2.73985 1.46534 0.02 0 0 0 1 2
4138 1 2.93926 1.64119 0.02 0 0 0 1 2
4136 1 2.931 1.43896 0.02 0 0 0 1 2
4146 1 2.23749 2.01884 0.02 0 0 0 1 2
4145 1 2.19377 1.80808 0.02 0 0 0 1 2
4144 1 2.04643 2.00471 0.02 0 0 0 1 2
4143 1 2.0017 1.80049 0.02 0 0 0 1 2
4141 1 1.81337 1.80296 0.02 0 0 0 1 2
4142 1 1.85762 2.01865 0.02 0 0 0 1 2
4150 1 2.61738 2.15552 0.02 0 0 0 1 2
4148 1 2.42975 2.15472 0.02 0 0 0 1 2
4149 1 2.60224 1.94703 0.02 0 0 0 1 2
4147 1 2.41347 1.93935 0.02 0 0 0 1 2
4151 1 2.77975 1.90663 0.02 0 0 0 1 2
4154 1 2.97108 2.0813 0.02 0 0 0 1 2
4152 1 2.95407 1.85044 0.02 0 0 0 1 2
4153 1 2.79876 2.14111 0.02 0 0 0 1 2
4161 1 2.25406 2.2322 0.02 0 0 0 1 2
4162 1 2.28698 2.43845 0.02 0 0 0 1 2
4160 1 2.09888 2.43239 0.02 0 0 0 1 2
4159 1 2.0656 2.21508 0.02 0 0 0 1 2
4157 1 1.88215 2.23665 0.02 0 0 0 1 2
4158 1 1.91489 2.4519 0.02 0 0 0 1 2
4165 1 2.6639 2.56525 0.02 0 0 0 1 2
4164 1 2.64537 2.3554 0.02 0 0 0 1 2
4163 1 2.46184 2.37575 0.02 0 0 0 1 2
4168 1 2.98322 2.543 0.02 0 0 0 1 2
4167 1 2.97498 2.30082 0.02 0 0 0 1 2
4166 1 2.82213 2.40528 0.02 0 0 0 1 2
4177 1 2.28129 2.84278 0.02 0 0 0 1 2
4173 1 2.10315 2.89397 0.02 0 0 0 1 2
4174 1 2.11587 2.65796 0.02 0 0 0 1 2
4171 1 1.93431 2.66472 0.02 0 0 0 1 2
4172 1 1.91622 2.87356 0.02 0 0 0 1 2
4176 1 2.30137 2.6405 0.02 0 0 0 1 2
4179 1 2.64771 2.78903 0.02 0 0 0 1 2
4180 1 2.66801 3.0221 0.02 0 0 0 1 2
4178 1 2.46985 2.84689 0.02 0 0 0 1 2
4175 1 2.48311 2.60998 0.02 0 0 0 1 2
4182 1 2.82674 2.88566 0.02 0 0 0 1 2
4181 1 2.83028 2.66333 0.02 0 0 0 1 2
4185 1 1.61855 3.35595 0.02 0 0 0 1 2
4284 1 1.65804 6.0382 0.02 0 0 0 1 2
4191 1 2.18002 3.3474 0.02 0 0 0 1 2
4190 1 2.14327 3.12675 0.02 0 0 0 1 2
4188 1 1.95906 3.08041 0.02 0 0 0 1 2
4189 1 1.99259 3.29354 0.02 0 0 0 1 2
4187 1 1.8041 3.30812 0.02 0 0 0 1 2
4194 1 2.34889 3.28011 0.02 0 0 0 1 2
4192 1 2.30986 3.05132 0.02 0 0 0 1 2
4195 1 2.52908 3.27341 0.02 0 0 0 1 2
4196 1 2.70772 3.27626 0.02 0 0 0 1 2
4193 1 2.49268 3.06864 0.02 0 0 0 1 2
4197 1 2.84702 3.10488 0.02 0 0 0 1 2
4198 1 2.89037 3.31511 0.02 0 0 0 1 2
4107 1 1.65611 1.17555 0.02 0 0 0 1 2
4207 1 2.20439 3.76357 0.02 0 0 0 1 2
4206 1 2.20472 3.55939 0.02 0 0 0 1 2
4203 1 2.02047 3.50721 0.02 0 0 0 1 2
4205 1 2.01353 3.71909 0.02 0 0 0 1 2
4204 1 1.83026 3.74968 0.02 0 0 0 1 2
4202 1 1.83671 3.52209 0.02 0 0 0 1 2
4209 1 2.56244 3.47924 0.02 0 0 0 1 2
4210 1 2.39439 3.73884 0.02 0 0 0 1 2
4212 1 2.62708 3.90299 0.02 0 0 0 1 2
4211 1 2.57847 3.69502 0.02 0 0 0 1 2
4208 1 2.38356 3.51595 0.02 0 0 0 1 2
4215 1 2.77374 3.72904 0.02 0 0 0 1 2
4213 1 2.74337 3.51873 0.02 0 0 0 1 2
4216 1 2.97345 3.70214 0.02 0 -1.7293e-22 1.65363e-23 1 2
4214 1 2.93291 3.51211 0.02 0 0 0 1 2
4139 1 1.63799 1.86503 0.02 0 0 0 1 2
4225 1 2.24965 4.1655 0.02 0 0 0 1 2
4224 1 2.2349 3.96574 0.02 0 0 0 1 2
4223 1 2.05565 4.14189 0.02 0 0 0 1 2
4221 1 2.0397 3.92883 0.02 0 0 0 1 2
4222 1 1.87166 4.19144 0.02 0 0 0 1 2
4220 1 1.85816 3.97523 0.02 0 0 0 1 2
4226 1 2.43277 3.9389 0.02 0 0 0 1 2
4228 1 2.49065 4.31663 0.02 0 0 0 1 2
4227 1 2.44872 4.13294 0.02 0 0 0 1 2
4229 1 2.65378 4.09939 0.02 0 0 0 1 2
4230 1 2.70654 4.28151 0.02 0 0 0 1 2
4233 1 2.92625 4.28053 0.02 0 0 0 1 2
4231 1 2.83311 3.92089 0.02 0 0 0 1 2
4232 1 2.87584 4.10382 0.02 0 0 0 1 2
4243 1 2.28088 4.35714 0.02 0 0 0 1 2
4242 1 2.16042 4.75335 0.02 0 0 0 1 2
4240 1 2.12976 4.56063 0.02 0 0 0 1 2
4238 1 2.08088 4.35765 0.02 0 0 0 1 2
4241 1 1.94492 4.77476 0.02 0 0 0 1 2
4237 1 1.89074 4.39539 0.02 0 0 0 1 2
4239 1 1.92739 4.58754 0.02 0 0 0 1 2
4245 1 2.54634 4.49297 0.02 0 0 0 1 2
4244 1 2.33813 4.53888 0.02 0 0 0 1 2
4246 1 2.3728 4.7225 0.02 0 0 0 1 2
4247 1 2.59172 4.66944 0.02 0 0 0 1 2
4248 1 2.76182 4.45797 0.02 0 0 0 1 2
4250 1 2.81801 4.62814 0.02 0 0 0 1 2
4122 1 1.62173 1.63873 0.02 0 0 0 1 2
4123 1 1.64595 1.40367 0.02 0 0 0 1 2
4255 1 2.15785 4.94057 0.02 0 0 0 1 2
4257 1 2.24923 5.10028 0.02 0 0 0 1 2
4256 1 1.98052 5.13246 0.02 0 0 0 1 2
4254 1 1.94154 4.9585 0.02 0 0 0 1 2
4259 1 2.6003 4.85251 0.02 0 0 0 1 2
4260 1 2.49577 5.07085 0.02 0 0 0 1 2
4258 1 2.38557 4.90888 0.02 0 0 0 1 2
4262 1 2.70165 5.01525 0.02 0 0 0 1 2
4261 1 2.67917 5.19782 0.02 0 0 0 1 2
4263 1 2.81803 4.80942 0.02 0 0 0 1 2
4266 1 2.92094 5.1624 0.02 0 0 0 1 2
4265 1 2.90686 4.97839 0.02 0 0 0 1 2
4313 1 1.64672 6.74726 0.02 0 -0.000840079 0.000855926 1 2
4274 1 2.23352 5.5976 0.02 0 0 0 1 2
4273 1 2.22496 5.41768 0.02 0 0 0 1 2
4269 1 2.1311 5.25975 0.02 0 0 0 1 2
4271 1 1.99474 5.46373 0.02 0 0 0 1 2
4272 1 2.00685 5.64006 0.02 0 0 0 1 2
4270 1 1.89792 5.30362 0.02 0 0 0 1 2
4276 1 2.45493 5.39255 0.02 0 0 0 1 2
4277 1 2.45671 5.57103 0.02 0 0 0 1 2
4275 1 2.39078 5.22991 0.02 0 0 0 1 2
4279 1 2.67402 5.55989 0.02 0 0 0 1 2
4278 1 2.66204 5.37423 0.02 0 0 0 1 2
4281 1 2.87958 5.52678 0.02 0 0 0 1 2
4280 1 2.88064 5.33932 0.02 0 0 0 1 2
4287 1 2.2185 5.78177 0.02 0 7.7303e-12 -4.93386e-11 1 2
4289 1 2.28332 5.965 0.02 0 8.87172e-09 -2.47824e-08 1 2
4288 1 2.08283 5.99035 0.02 0 1.88778e-08 -5.32881e-08 1 2
4286 1 2.00238 5.81872 0.02 0 1.61789e-11 -1.171e-10 1 2
4285 1 1.8704 6.00123 0.02 0 2.58506e-09 -6.29523e-09 1 2
4290 1 2.43279 5.75112 0.02 0 1.16586e-12 -6.68026e-12 1 2
4293 1 2.67909 5.94326 0.02 0 1.91018e-09 -7.4557e-09 1 2
4291 1 2.6511 5.74855 0.02 0 5.85581e-13 -2.39254e-12 1 2
4292 1 2.48075 5.933 0.02 0 1.99837e-09 -5.43574e-09 1 2
4294 1 2.8601 5.72188 0.02 0 1.77058e-13 -3.99556e-13 1 2
4140 1 1.67597 2.07346 0.02 0 0 0 1 2
4296 1 2.87204 5.92038 0.02 0 6.28755e-10 -2.90325e-09 1 2
4156 1 1.72758 2.48051 0.02 0 0 0 1 2
4303 1 2.13127 6.36822 0.02 0 6.36091e-05 -0.000149473 1 2
4302 1 2.13267 6.17626 0.02 0 2.94978e-06 -9.54174e-06 1 2
4300 1 1.92963 6.17676 0.02 0 7.11259e-07 -3.8773e-06 1 2
4301 1 1.93294 6.3623 0.02 0 3.25133e-05 -9.35864e-05 1 2
4307 1 2.51341 6.34544 0.02 0 6.63853e-05 -0.000122137 1 2
4304 1 2.32268 6.1625 0.02 0 3.66209e-06 -9.41988e-06 1 2
4305 1 2.3277 6.36025 0.02 0 8.1607e-05 -0.000158657 1 2
4306 1 2.50336 6.13043 0.02 0 1.88661e-06 -4.75516e-06 1 2
4309 1 2.69649 6.35256 0.02 0 7.03642e-05 -0.000120613 1 2
4308 1 2.68569 6.14928 0.02 0 2.77863e-06 -6.72208e-06 1 2
4201 1 1.64186 3.75976 0.02 0 0 0 1 2
4310 1 2.86833 6.12594 0.02 0 1.51856e-06 -4.7022e-06 1 2
4312 1 2.88089 6.33881 0.02 0 5.40009e-05 -0.000111824 1 2
4320 1 2.28416 6.54827 0.02 0 0.000222753 -0.000612757 1 2
4317 1 2.23501 6.72947 0.02 0 -0.00247033 0.000584921 1 2
4319 1 2.08486 6.55695 0.02 0 8.58229e-05 -0.000549103 1 2
4318 1 2.04042 6.74615 0.02 0 -0.00352327 0.000688814 1 2
4316 1 1.89055 6.55075 0.02 0 0.000109875 -0.000423434 1 2
4315 1 1.84585 6.73637 0.02 0 -0.00242786 0.000773219 1 2
4322 1 2.42909 6.74463 0.02 0 -0.00278633 0.000607968 1 2
4321 1 2.62797 6.74855 0.02 0 -0.00299166 0.000525302 1 2
4323 1 2.47818 6.55266 0.02 0 0.000207146 -0.000576482 1 2
4324 1 2.66599 6.55409 0.02 0 0.000154177 -0.000519697 1 2
4326 1 2.82554 6.72713 0.02 0 -0.00225887 0.000476582 1 2
4155 1 1.7001 2.27936 0.02 0 0 0 1 2
4327 1 2.85618 6.53901 0.02 0 0.000298653 -0.000538837 1 2
4298 1 1.7173 6.20909 0.02 0 1.59907e-06 -1.9797e-06 1 2
9 2 2 7 0 0 0 0 1.00116 5
10 2 2.2 7 0 0 0 0 0.999513 5
11 2 2.4 7 0 0 0 0 1.00024 5
43 2 2 7.2 0 0 0 0 1.00088 5
44 2 2.2 7.2 0 0 0 0 0.999107 5
45 2 2.4 7.2 0 0 0 0 1.00094 5
47 2 2.8 7.2 0 0 0 0 1.00136 5
13 2 2.8 7 0 0 0 0 1.00027 5
46 2 2.6 7.2 0 0 0 0 0.999461 5
12 2 2.6 7 0 0 0 0 0.999722 5
146 2 2.2 7.8 0 0 0 0 1 5
145 2 2 7.8 0 0 0 0 1 5
77 2 2 7.4 0 0 0 0 1.00258 5
78 2 2.2 7.4 0 0 0 0 0.996524 5
147 2 2.4 7.8 0 0 0 0 1 5
111 2 2 7.6 0 0 0 0 1 5
112 2 2.2 7.6 0 0 0 0 1 5
113 2 2.4 7.6 0 0 0 0 1 5
79 2 2.4 7.4 0 0 0 0 1.00164 5
80 2 2.6 7.4 0 0 0 0 1.00133 5
149 2 2.8 7.8 0 0 0 0 1 5
148 2 2.6 7.8 0 0 0 0 1 5
114 2 2.6 7.6 0 0 0 0 1 5
81 2 2.8 7.4 0 0 0 0 1.00703 5
115 2 2.8 7.6 0 0 0 0 1 5
179 2 2 8 0 0 0 0 1 5
180 2 2.2 8 0 0 0 0 1 5
181 2 2.4 8 0 0 0 0 1 5
213 2 2 8.2 0 0 0 0 1 5
214 2 2.2 8.2 0 0 0 0 1 5
215 2 2.4 8.2 0 0 0 0 1 5
182 2 2.6 8 0 0 0 0 1 5
183 2 2.8 8 0 0 0 0 1 5
216 2 2.6 8.2 0 0 0 0 1 5
217 2 2.8 8.2 0 0 0 0 1 5
281 2 2 8.6 0 0 0 0 1 5
249 2 2.4 8.4 0 0 0 0 1 5
248 2 2.2 8.4 0 0 0 0 1 5
247 2 2 8.4 0 0 0 0 1 5
283 2 2.4 8.6 0 0 0 0 1 5
282 2 2.2 8.6 0 0 0 0 1 5
285 2 2.8 8.6 0 0 0 0 1 5
284 2 2.6 8.6 0 0 0 0 1 5
251 2 2.8 8.4 0 0 0 0 1 5
250 2 2.6 8.4 0 0 0 0 1 5
350 2 2.2 9 0 0 0 0 1 5
351 2 2.4 9 0 0 0 0 1 5
315 2 2 8.8 0 0 0 0 1 5
316 2 2.2 8.8 0 0 0 0 1 5
317 2 2.4 8.8 0 0 0 0 1 5
349 2 2 9 0 0 0 0 1 5
353 2 2.8 9 0 0 0 0 1 5
352 2 2.6 9 0 0 0 0 1 5
319 2 2.8 8.8 0 0 0 0 1 5
318 2 2.6 8.8 0 0 0 0 1 5
384 2 2.2 9.2 0 0 0 0 1 5
419 2 2.4 9.4 0 0 0 0 1 5
383 2 2 9.2 0 0 0 0 1 5
385 2 2.4 9.2 0 0 0 0 1 5
418 2 2.2 9.4 0 0 0 0 1 5
417 2 2 9.4 0 0 0 0 1 5
420 2 2.6 9.4 0 0 0 0 1 5
421 2 2.8 9.4 0 0 0 0 1 5
387 2 2.8 9.2 0 0 0 0 1 5
386 2 2.6 9.2 0 0 0 0 1 5
485 2 2 9.8 0 0 0 0 1 5
451 2 2 9.6 0 0 0 0 1 5
486 2 2.2 9.8 0 0 0 0 1 5
487 2 2.4 9.8 0 0 0 0 1 5
452 2 2.2 9.6 0 0 0 0 1 5
453 2 2.4 9.6 0 0 0 0 1 5
454 2 2.6 9.6 0 0 0 0 1 5
455 2 2.8 9.6 0 0 0 0 1 5
488 2 2.6 9.8 0 0 0 0 1 5
489 2 2.8 9.8 0 0 0 0 1 5
4076 1 1.73863 0.121934 0.02 0 0 0 1 2
4124 1 1.80032 1.58808 0.02 0 0 0 1 2
4169 1 1.74612 2.68252 0.02 0 0 0 1 2
4186 1 1.7719 3.09781 0.02 0 0 0 1 2
4299 1 1.73177 6.38872 0.02 0 5.65124e-05 -4.90233e-05 1 2
4252 1 1.73368 4.96928 0.02 0 0 0 1 2
4283 1 1.77336 5.84238 0.02 0 1.42973e-12 -4.42244e-12 1 2
4282 1 1.77925 5.66804 0.02 0 0 0 1 2
4268 1 1.75005 5.49934 0.02 0 0 0 1 2
4075 1 1.69794 0.322981 0.02 0 0 0 1 2
4267 1 1.68984 5.3287 0.02 0 0 0 1 2
4253 1 1.72119 5.14919 0.02 0 0 0 1 2
4236 1 1.72781 4.77927 0.02 0 0 0 1 2
4235 1 1.72358 4.58004 0.02 0 0 0 1 2
4234 1 1.69816 4.36803 0.02 0 0 0 1 2
4219 1 1.68104 4.15607 0.02 0 0 0 1 2
4218 1 1.66934 3.95522 0.02 0 0 0 1 2
4314 1 1.68503 6.56986 0.02 0 0.000310424 -0.000172402 1 2
4090 1 1.66334 0.737242 0.02 0 0 0 1 2
4089 1 1.67469 0.52816 0.02 0 0 0 1 2
4106 1 1.67 0.95141 0.02 0 0 0 1 2
4170 1 1.72752 2.89132 0.02 0 0 0 1 2
1583 2 3.2 -9.6 0 0 0 0 1 5
1582 2 3 -9.6 0 0 0 0 1 5
1549 2 3.2 -9.8 0 0 0 0 1 5
1548 2 3 -9.8 0 0 0 0 1 5
1515 2 3.2 -10 0 0 0 0 1 5
1514 2 3 -10 0 0 0 0 1 5
1584 2 3.4 -9.6 0 0 0 0 1 5
1550 2 3.4 -9.8 0 0 0 0 1 5
1516 2 3.4 -10 0 0 0 0 1 5
1586 2 3.8 -9.6 0 0 0 0 1 5
1585 2 3.6 -9.6 0 0 0 0 1 5
1552 2 3.8 -9.8 0 0 0 0 1 5
1551 2 3.6 -9.8 0 0 0 0 1 5
1518 2 3.8 -10 0 0 0 0 1 5
1517 2 3.6 -10 0 0 0 0 1 5
1588 2 4.2 -9.6 0 0 0 0 1 5
1587 2 4 -9.6 0 0 0 0 1 5
1554 2 4.2 -9.8 0 0 0 0 1 5
1553 2 4 -9.8 0 0 0 0 1 5
1520 2 4.2 -10 0 0 0 0 1 5
1519 2 4 -10 0 0 0 0 1 5
1616 2 3 -9.4 0 0 0 0 1 5
1617 2 3.2 -9.4 0 0 0 0 1 5
1651 2 3.2 -9.2 0 0 0 0 1 5
1650 2 3 -9.2 0 0 0 0 1 5
1652 2 3.4 -9.2 0 0 0 0 1 5
1618 2 3.4 -9.4 0 0 0 0 1 5
1653 2 3.6 -9.2 0 0 0 0 1 5
1654 2 3.8 -9.2 0 0 0 0 1 5
1620 2 3.8 -9.4 0 0 0 0 1 5
1619 2 3.6 -9.4 0 0 0 0 1 5
1622 2 4.2 -9.4 0 0 0 0 1 5
1655 2 4 -9.2 0 0 0 0 1 5
1656 2 4.2 -9.2 0 0 0 0 1 5
1621 2 4 -9.4 0 0 0 0 1 5
1719 2 3.2 -8.8 0 0 0 0 1 5
1718 2 3 -8.8 0 0 0 0 1 5
1685 2 3.2 -9 0 0 0 0 1 5
1684 2 3 -9 0 0 0 0 1 5
1686 2 3.4 -9 0 0 0 0 1 5
1720 2 3.4 -8.8 0 0 0 0 1 5
1687 2 3.6 -9 0 0 0 0 1 5
1688 2 3.8 -9 0 0 0 0 1 5
1721 2 3.6 -8.8 0 0 0 0 1 5
1722 2 3.8 -8.8 0 0 0 0 1 5
1689 2 4 -9 0 0 0 0 1 5
1690 2 4.2 -9 0 0 0 0 1 5
1723 2 4 -8.8 0 0 0 0 1 5
1724 2 4.2 -8.8 0 0 0 0 1 5
1752 2 3 -8.6 0 0 0 0 1 5
1753 2 3.2 -8.6 0 0 0 0 1 5
1786 2 3 -8.4 0 0 0 0 1 5
1787 2 3.2 -8.4 0 0 0 0 1 5
1754 2 3.4 -8.6 0 0 0 0 1 5
1788 2 3.4 -8.4 0 0 0 0 1 5
1755 2 3.6 -8.6 0 0 0 0 1 5
1756 2 3.8 -8.6 0 0 0 0 1 5
1789 2 3.6 -8.4 0 0 0 0 1 5
1790 2 3.8 -8.4 0 0 0 0 1 5
1757 2 4 -8.6 0 0 0 0 1 5
1758 2 4.2 -8.6 0 0 0 0 1 5
1791 2 4 -8.4 0 0 0 0 1 5
1792 2 4.2 -8.4 0 0 0 0 1 5
1820 2 3 -8.2 0 0 0 0 1 5
1821 2 3.2 -8.2 0 0 0 0 1 5
1854 2 3 -8 0 0 0 0 1 5
1855 2 3.2 -8 0 0 0 0 1 5
1822 2 3.4 -8.2 0 0 0 0 1 5
1856 2 3.4 -8 0 0 0 0 1 5
1823 2 3.6 -8.2 0 0 0 0 1 5
1824 2 3.8 -8.2 0 0 0 0 1 5
1857 2 3.6 -8 0 0 0 0 1 5
1858 2 3.8 -8 0 0 0 0 1 5
1825 2 4 -8.2 0 0 0 0 1 5
1826 2 4.2 -8.2 0 0 0 0 1 5
1859 2 4 -8 0 0 0 0 1 5
1860 2 4.2 -8 0 0 0 0 1 5
1888 2 3 -7.8 0 0 0 0 1 5
1889 2 3.2 -7.8 0 0 0 0 1 5
1922 2 3 -7.6 0 0 0 0 1 5
1923 2 3.2 -7.6 0 0 0 0 1 5
1956 2 3 -7.4 0 0 0 0 0.999624 5
1957 2 3.2 -7.4 0 0 0 0 0.988489 5
1890 2 3.4 -7.8 0 0 0 0 1 5
1924 2 3.4 -7.6 0 0 0 0 1 5
1958 2 3.4 -7.4 0 0 0 0 1 5
1891 2 3.6 -7.8 0 0 0 0 1 5
1892 2 3.8 -7.8 0 0 0 0 1 5
1925 2 3.6 -7.6 0 0 0 0 1 5
1926 2 3.8 -7.6 0 0 0 0 1 5
1959 2 3.6 -7.4 0 0 0 0 1.00724 5
1960 2 3.8 -7.4 0 0 0 0 1.00385 5
1893 2 4 -7.8 0 0 0 0 1 5
1894 2 4.2 -7.8 0 0 0 0 1 5
1927 2 4 -7.6 0 0 0 0 1 5
1928 2 4.2 -7.6 0 0 0 0 1 5
1961 2 4 -7.4 0 0 0 0 1.00112 5
1962 2 4.2 -7.4 0 0 0 0 0.995881 5
1990 2 3 -7.2 0 0 0 0 0.996687 5
1991 2 3.2 -7.2 0 0 0 0 0.988337 5
2024 2 3 -7 0 0 0 0 0.995939 5
2025 2 3.2 -7 0 0 0 0 0.988182 5
1992 2 3.4 -7.2 0 0 0 0 1.00845 5
2026 2 3.4 -7 0 0 0 0 1.00392 5
1993 2 3.6 -7.2 0 0 0 0 1.00873 5
1994 2 3.8 -7.2 0 0 0 0 1.00406 5
2027 2 3.6 -7 0 0 0 0 1.00904 5
2028 2 3.8 -7 0 0 0 0 1.00412 5
1995 2 4 -7.2 0 0 0 0 1.00104 5
1996 2 4.2 -7.2 0 0 0 0 0.997694 5
2029 2 4 -7 0 0 0 0 1.00112 5
2030 2 4.2 -7 0 0 0 0 0.998068 5
3948 1 4.01104 -6.57855 0.018535 0 4.16179e-05 0.000425328 1 2
3946 1 3.92603 -6.76349 0.0152556 0 -0.00219117 -0.000340055 1 2
3947 1 3.81621 -6.57221 0.019283 0 -0.000790548 4.77251e-05 1 2
3945 1 3.76763 -6.74459 0.0156921 0 -0.00148026 -0.000228011 1 2
3949 1 4.08409 -6.76677 0.0150242 0 -0.00290892 -0.000498648 1 2
3951 1 4.19686 -6.57855 0.0190231 0 -0.000436469 0.000412282 1 2
3953 1 4.3979 -6.7407 0.0152275 0 -0.00104946 -0.000101696 1 2
3950 1 4.2492 -6.74921 0.0151977 0 -0.00293115 -0.000517903 1 2
3952 1 4.38178 -6.55859 0.0190671 0 -3.17095e-05 0.000669003 1 2
3844 1 4.02499 -0.788933 0.02 0 -4.6043e-20 4.24127e-19 1 2
3842 1 4.1673 -0.527642 0.02 0 -6.31335e-18 -1.20132e-18 1 2
3962 1 4.01642 -6.21801 0.0198773 0 2.53867e-05 4.79175e-05 1 2
3960 1 3.99916 -6.39862 0.0195718 0 0.000182425 0.000197725 1 2
3959 1 3.77729 -6.40575 0.019865 0 -0.000274557 -4.06757e-05 1 2
3961 1 3.79881 -6.22649 0.0199606 0 -3.24136e-05 5.14538e-06 1 2
3963 1 4.20267 -6.38915 0.0196383 0 5.10833e-05 0.000161368 1 2
3965 1 4.2216 -6.18855 0.0199002 0 -8.12876e-06 2.87898e-05 1 2
3966 1 4.42443 -6.18143 0.0199192 0 -6.02099e-06 4.95664e-05 1 2
3964 1 4.39849 -6.36834 0.0196715 0 7.97475e-05 0.000248541 1 2
3828 1 3.95128 -0.378772 0.02 0 2.61899e-18 1.60445e-20 1 2
3831 1 3.76507 -0.39204 0.02 0 -4.88643e-18 -2.45477e-20 1 2
3976 1 3.67429 -5.83368 0.02 0 -8.50038e-07 3.68047e-07 1 2
3973 1 3.63506 -6.03328 0.02 0 -7.52169e-06 -1.98071e-06 1 2
3978 1 4.06354 -5.82346 0.0199824 0 -2.20491e-06 1.11591e-06 1 2
3975 1 4.01891 -6.02704 0.0199531 0 1.51384e-06 6.47469e-06 1 2
3977 1 3.86842 -5.82876 0.0199915 0 -7.50537e-07 1.33279e-06 1 2
3974 1 3.82672 -6.03474 0.0199822 0 -5.56883e-06 4.59105e-06 1 2
3979 1 4.21664 -5.99289 0.0199441 0 3.69546e-06 4.76108e-06 1 2
3870 1 4.35905 -1.32082 0.02 0 1.02084e-17 -1.65246e-19 1 2
3981 1 4.26995 -5.803 0.0199692 0 4.09438e-06 1.40457e-06 1 2
3980 1 4.42478 -5.99456 0.0199497 0 1.0927e-05 1.42183e-05 1 2
3827 1 4.13274 -0.317833 0.02 0 -1.90713e-18 6.21024e-19 1 2