ITEM: TIMESTEP
4000
ITEM: NUMBER OF ATOMS
1127
ITEM: BOX BOUNDS ff ff pp
0.0000000000000000e+00 4.4000000000000004e+00
-1.0000000000000000e+01 1.0000000000000000e+01
-2.0000000000000000e-02 2.0000000000000000e-02
ITEM: ATOMS id type x y vx vy fx fy c_den c_phase
1502 2 2.1996 -10 0.02 0 0 0 1 5
1536 2 2.1996 -9.8 0.02 0 0 0 1 5
1570 2 2.1996 -9.6 0.02 0 0 0 1 5
1501 2 1.9996 -10 0.02 0 0 0 1 5
1535 2 1.9996 -9.8 0.02 0 0 0 1 5
1569 2 1.9996 -9.6 0.02 0 0 0 1 5
1504 2 2.5996 -10 0.02 0 0 0 1 5
1538 2 2.5996 -9.8 0.02 0 0 0 1 5
1572 2 2.5996 -9.6 0.02 0 0 0 1 5
1503 2 2.3996 -10 0.02 0 0 0 1 5
1537 2 2.3996 -9.8 0.02 0 0 0 1 5
1571 2 2.3996 -9.6 0.02 0 0 0 1 5
1509 2 2 -10 0 0 0 0 1 5
1510 2 2.2 -10 0 0 0 0 1 5
1511 2 2.4 -10 0 0 0 0 1 5
1543 2 2 -9.8 0 0 0 0 1 5
1544 2 2.2 -9.8 0 0 0 0 1 5
1545 2 2.4 -9.8 0 0 0 0 1 5
1577 2 2 -9.6 0 0 0 0 1 5
1578 2 2.2 -9.6 0 0 0 0 1 5
1579 2 2.4 -9.6 0 0 0 0 1 5
2157 1 1.61371 -6.73915 0.02 0 -0.000237828 -0.000158781 1 2
2059 1 1.62432 -0.609091 0.02 0 0 0 1 2
2060 1 1.64472 -0.808962 0.02 0 0 0 1 2
1505 2 2.7996 -10 0.02 0 0 0 1 5
1539 2 2.7996 -9.8 0.02 0 0 0 1 5
1573 2 2.7996 -9.6 0.02 0 0 0 1 5
2034 1 2.92764 -0.130901 0.02 0 0 0 1 2
2031 1 2.94713 -0.318944 0.02 0 0 0 1 2
2033 1 2.72451 -0.167125 0.02 0 0 0 1 2
1512 2 2.6 -10 0 0 0 0 1 5
1513 2 2.8 -10 0 0 0 0 1 5
1546 2 2.6 -9.8 0 0 0 0 1 5
1547 2 2.8 -9.8 0 0 0 0 1 5
1580 2 2.6 -9.6 0 0 0 0 1 5
1581 2 2.8 -9.6 0 0 0 0 1 5
1603 2 1.9996 -9.4 0.02 0 0 0 1 5
1637 2 1.9996 -9.2 0.02 0 0 0 1 5
1638 2 2.1996 -9.2 0.02 0 0 0 1 5
1604 2 2.1996 -9.4 0.02 0 0 0 1 5
1640 2 2.5996 -9.2 0.02 0 0 0 1 5
1606 2 2.5996 -9.4 0.02 0 0 0 1 5
1639 2 2.3996 -9.2 0.02 0 0 0 1 5
1605 2 2.3996 -9.4 0.02 0 0 0 1 5
1645 2 2 -9.2 0 0 0 0 1 5
1646 2 2.2 -9.2 0 0 0 0 1 5
1647 2 2.4 -9.2 0 0 0 0 1 5
1613 2 2.4 -9.4 0 0 0 0 1 5
1612 2 2.2 -9.4 0 0 0 0 1 5
1611 2 2 -9.4 0 0 0 0 1 5
2108 1 1.61302 -2.0009 0.02 0 0 0 1 2
2123 1 1.62972 -2.21217 0.02 0 0 0 1 2
1641 2 2.7996 -9.2 0.02 0 0 0 1 5
1607 2 2.7996 -9.4 0.02 0 0 0 1 5
2032 1 2.74881 -0.370969 0.02 0 0 0 1 2
2037 1 2.36437 -0.401333 0.02 0 0 0 1 2
1648 2 2.6 -9.2 0 0 0 0 1 5
1649 2 2.8 -9.2 0 0 0 0 1 5
1615 2 2.8 -9.4 0 0 0 0 1 5
1614 2 2.6 -9.4 0 0 0 0 1 5
1705 2 1.9996 -8.8 0.02 0 0 0 1 5
1671 2 1.9996 -9 0.02 0 0 0 1 5
1672 2 2.1996 -9 0.02 0 0 0 1 5
1706 2 2.1996 -8.8 0.02 0 0 0 1 5
1674 2 2.5996 -9 0.02 0 0 0 1 5
1708 2 2.5996 -8.8 0.02 0 0 0 1 5
1673 2 2.3996 -9 0.02 0 0 0 1 5
1707 2 2.3996 -8.8 0.02 0 0 0 1 5
1679 2 2 -9 0 0 0 0 1 5
1680 2 2.2 -9 0 0 0 0 1 5
1681 2 2.4 -9 0 0 0 0 1 5
1713 2 2 -8.8 0 0 0 0 1 5
1714 2 2.2 -8.8 0 0 0 0 1 5
1715 2 2.4 -8.8 0 0 0 0 1 5
2205 1 1.62573 -5.58762 0.02 0 0 0 1 2
2206 1 1.60237 -5.39266 0.02 0 0 0 1 2
1675 2 2.7996 -9 0.02 0 0 0 1 5
1709 2 2.7996 -8.8 0.02 0 0 0 1 5
2038 1 2.3386 -0.191329 0.02 0 0 0 1 2
2035 1 2.55471 -0.383144 0.02 0 0 0 1 2
1682 2 2.6 -9 0 0 0 0 1 5
1683 2 2.8 -9 0 0 0 0 1 5
1716 2 2.6 -8.8 0 0 0 0 1 5
1717 2 2.8 -8.8 0 0 0 0 1 5
1739 2 1.9996 -8.6 0.02 0 0 0 1 5
1773 2 1.9996 -8.4 0.02 0 0 0 1 5
1774 2 2.1996 -8.4 0.02 0 0 0 1 5
1740 2 2.1996 -8.6 0.02 0 0 0 1 5
1776 2 2.5996 -8.4 0.02 0 0 0 1 5
1742 2 2.5996 -8.6 0.02 0 0 0 1 5
1775 2 2.3996 -8.4 0.02 0 0 0 1 5
1741 2 2.3996 -8.6 0.02 0 0 0 1 5
1783 2 2.4 -8.4 0 0 0 0 1 5
1782 2 2.2 -8.4 0 0 0 0 1 5
1781 2 2 -8.4 0 0 0 0 1 5
1747 2 2 -8.6 0 0 0 0 1 5
1748 2 2.2 -8.6 0 0 0 0 1 5
1749 2 2.4 -8.6 0 0 0 0 1 5
2222 1 1.64851 -4.83834 0.02 0 0 0 1 2
2238 1 1.64067 -4.65017 0.02 0 0 0 1 2
1777 2 2.7996 -8.4 0.02 0 0 0 1 5
1743 2 2.7996 -8.6 0.02 0 0 0 1 5
2036 1 2.5293 -0.170696 0.02 0 0 0 1 2
2041 1 1.98094 -0.418584 0.02 0 0 0 1 2
1785 2 2.8 -8.4 0 0 0 0 1 5
1784 2 2.6 -8.4 0 0 0 0 1 5
1750 2 2.6 -8.6 0 0 0 0 1 5
1751 2 2.8 -8.6 0 0 0 0 1 5
1807 2 1.9996 -8.2 0.02 0 0 0 1 5
1841 2 1.9996 -8 0.02 0 0 0 1 5
1842 2 2.1996 -8 0.02 0 0 0 1 5
1808 2 2.1996 -8.2 0.02 0 0 0 1 5
1844 2 2.5996 -8 0.02 0 0 0 1 5
1810 2 2.5996 -8.2 0.02 0 0 0 1 5
1843 2 2.3996 -8 0.02 0 0 0 1 5
1809 2 2.3996 -8.2 0.02 0 0 0 1 5
1851 2 2.4 -8 0 0 0 0 1 5
1850 2 2.2 -8 0 0 0 0 1 5
1849 2 2 -8 0 0 0 0 1 5
1817 2 2.4 -8.2 0 0 0 0 1 5
1816 2 2.2 -8.2 0 0 0 0 1 5
1815 2 2 -8.2 0 0 0 0 1 5
2239 1 1.645 -4.462 0.02 0 0 0 1 2
2124 1 1.63691 -2.4215 0.02 0 0 0 1 2
1845 2 2.7996 -8 0.02 0 0 0 1 5
1811 2 2.7996 -8.2 0.02 0 0 0 1 5
2040 1 2.14801 -0.202375 0.02 0 0 0 1 2
2039 1 2.17233 -0.411655 0.02 0 0 0 1 2
1853 2 2.8 -8 0 0 0 0 1 5
1852 2 2.6 -8 0 0 0 0 1 5
1819 2 2.8 -8.2 0 0 0 0 1 5
1818 2 2.6 -8.2 0 0 0 0 1 5
1875 2 1.9996 -7.8 0.02 0 0 0 1 5
1909 2 1.9996 -7.6 0.02 0 0 0 1 5
1943 2 1.9996 -7.4 0.02 0 0 0 0.999144 5
1944 2 2.1996 -7.4 0.02 0 0 0 1.00063 5
1910 2 2.1996 -7.6 0.02 0 0 0 1 5
1876 2 2.1996 -7.8 0.02 0 0 0 1 5
1946 2 2.5996 -7.4 0.02 0 0 0 1.00057 5
1912 2 2.5996 -7.6 0.02 0 0 0 1 5
1878 2 2.5996 -7.8 0.02 0 0 0 1 5
1945 2 2.3996 -7.4 0.02 0 0 0 1.00024 5
1911 2 2.3996 -7.6 0.02 0 0 0 1 5
1877 2 2.3996 -7.8 0.02 0 0 0 1 5
1953 2 2.4 -7.4 0 0 0 0 1.00024 5
1952 2 2.2 -7.4 0 0 0 0 1.00063 5
1951 2 2 -7.4 0 0 0 0 0.999151 5
1919 2 2.4 -7.6 0 0 0 0 1 5
1918 2 2.2 -7.6 0 0 0 0 1 5
1917 2 2 -7.6 0 0 0 0 1 5
1885 2 2.4 -7.8 0 0 0 0 1 5
1884 2 2.2 -7.8 0 0 0 0 1 5
1883 2 2 -7.8 0 0 0 0 1 5
2252 1 1.66068 -4.27373 0.02 0 0 0 1 2
2273 1 1.64567 -3.68365 0.02 0 0 0 1 2
2139 1 1.65943 -2.62755 0.02 0 0 0 1 2
1947 2 2.7996 -7.4 0.02 0 0 0 0.99828 5
1913 2 2.7996 -7.6 0.02 0 0 0 1 5
1879 2 2.7996 -7.8 0.02 0 0 0 1 5
2042 1 1.9597 -0.204515 0.02 0 0 0 1 2
2048 1 2.80154 -0.782001 0.02 0 0 0 1 2
2046 1 2.98676 -0.71437 0.02 0 0 0 1 2
1955 2 2.8 -7.4 0 0 0 0 0.998289 5
1954 2 2.6 -7.4 0 0 0 0 1.00056 5
1921 2 2.8 -7.6 0 0 0 0 1 5
1920 2 2.6 -7.6 0 0 0 0 1 5
1887 2 2.8 -7.8 0 0 0 0 1 5
1886 2 2.6 -7.8 0 0 0 0 1 5
1977 2 1.9996 -7.2 0.02 0 0 0 1.00002 5
2011 2 1.9996 -7 0.02 0 0 0 1.00037 5
2012 2 2.1996 -7 0.02 0 0 0 1.0001 5
1978 2 2.1996 -7.2 0.02 0 0 0 1.00007 5
2014 2 2.5996 -7 0.02 0 0 0 0.999916 5
1980 2 2.5996 -7.2 0.02 0 0 0 0.999921 5
2013 2 2.3996 -7 0.02 0 0 0 1.00003 5
1979 2 2.3996 -7.2 0.02 0 0 0 1.00013 5
2021 2 2.4 -7 0 0 0 0 1.00003 5
2020 2 2.2 -7 0 0 0 0 1.0001 5
2019 2 2 -7 0 0 0 0 1.00037 5
1987 2 2.4 -7.2 0 0 0 0 1.00013 5
1986 2 2.2 -7.2 0 0 0 0 1.00007 5
1985 2 2 -7.2 0 0 0 0 1.00002 5
2156 1 1.63146 -3.47088 0.02 0 0 0 1 2
2155 1 1.63213 -3.25575 0.02 0 0 0 1 2
2015 2 2.7996 -7 0.02 0 0 0 0.999613 5
1981 2 2.7996 -7.2 0.02 0 0 0 0.999422 5
2045 1 2.95878 -0.514055 0.02 0 0 0 1 2
2047 1 2.77077 -0.577099 0.02 0 0 0 1 2
2023 2 2.8 -7 0 0 0 0 0.999613 5
2022 2 2.6 -7 0 0 0 0 0.999915 5
1989 2 2.8 -7.2 0 0 0 0 0.999423 5
1988 2 2.6 -7.2 0 0 0 0 0.999919 5
2162 1 2.23309 -6.75043 0.02 0 -0.00113267 -0.000143332 1 2
2164 1 2.23566 -6.56481 0.02 0 -3.08354e-05 0.00011104 1 2
2161 1 2.03461 -6.74572 0.02 0 -0.00116662 -0.000168221 1 2
2163 1 2.02812 -6.56407 0.02 0 -4.20236e-05 8.73929e-05 1 2
2160 1 1.83519 -6.57535 0.02 0 -4.27492e-05 7.02914e-05 1 2
2158 1 1.81892 -6.76661 0.02 0 -0.00100508 -0.000287317 1 2
2168 1 2.64774 -6.56544 0.02 0 -3.5309e-05 0.000139872 1 2
2166 1 2.62585 -6.75916 0.02 0 -0.00112715 -0.000195672 1 2
2167 1 2.44728 -6.56288 0.02 0 -2.21278e-05 0.000153545 1 2
2165 1 2.42654 -6.74604 0.02 0 -0.0010705 -0.000193404 1 2
2141 1 1.65495 -3.0408 0.02 0 0 0 1 2
2159 1 1.64751 -6.55076 0.02 0 5.62289e-05 3.52615e-05 1 2
2169 1 2.82203 -6.73676 0.02 0 -0.000952296 -0.000224159 1 2
2171 1 2.84608 -6.55608 0.02 0 -8.04406e-06 0.000152385 1 2
2178 1 2.25026 -6.37692 0.02 0 4.15831e-05 6.28457e-05 1 2
2180 1 2.27755 -6.18093 0.02 0 2.8764e-06 7.41759e-06 1 2
2177 1 2.05762 -6.37882 0.02 0 2.17663e-05 5.01563e-05 1 2
2179 1 2.08304 -6.18522 0.02 0 1.67128e-06 6.06917e-06 1 2
2176 1 1.89165 -6.17475 0.02 0 3.70256e-07 1.84714e-06 1 2
2175 1 1.86276 -6.37801 0.02 0 7.90101e-06 2.65321e-05 1 2
2184 1 2.66488 -6.181 0.02 0 3.43677e-06 7.19045e-06 1 2
2182 1 2.62567 -6.37314 0.02 0 5.4027e-05 6.44517e-05 1 2
2183 1 2.47065 -6.16748 0.02 0 2.49354e-06 5.67209e-06 1 2
2181 1 2.43793 -6.37185 0.02 0 4.91869e-05 6.05459e-05 1 2
2272 1 1.69796 -3.89073 0.02 0 0 0 1 2
2253 1 1.67105 -4.08309 0.02 0 0 0 1 2
2187 1 2.86005 -6.17118 0.02 0 3.09902e-06 6.41179e-06 1 2
2185 1 2.81943 -6.36836 0.02 0 5.53719e-05 6.15418e-05 1 2
2196 1 2.28244 -5.9853 0.02 0 1.20537e-08 5.36478e-08 1 2
2195 1 2.2659 -5.78886 0.02 0 1.01269e-11 4.25802e-11 1 2
2193 1 2.08614 -5.98699 0.02 0 6.7593e-09 4.62093e-08 1 2
2194 1 2.07113 -5.78504 0.02 0 2.48002e-12 1.80767e-11 1 2
2192 1 1.87604 -5.77559 0.02 0 1.44001e-13 2.29219e-12 1 2
2191 1 1.88972 -5.97299 0.02 0 1.00459e-09 7.29516e-09 1 2
2200 1 2.65968 -5.78722 0.02 0 8.88608e-12 4.40229e-11 1 2
2198 1 2.66435 -5.98631 0.02 0 1.36948e-08 4.56187e-08 1 2
2199 1 2.46109 -5.75899 0.02 0 9.96496e-13 6.78537e-12 1 2
2197 1 2.47354 -5.96034 0.02 0 4.57173e-09 1.67241e-08 1 2
2190 1 1.67906 -5.78431 0.02 0 0 0 1 2
2140 1 1.67046 -2.83279 0.02 0 0 0 1 2
2201 1 2.85822 -5.97154 0.02 0 7.59305e-09 2.45506e-08 1 2
2203 1 2.85888 -5.77485 0.02 0 5.80181e-12 2.29908e-11 1 2
2212 1 2.23012 -5.39862 0.02 0 0 0 1 2
2210 1 2.24336 -5.59168 0.02 0 0 0 1 2
2211 1 2.01951 -5.39695 0.02 0 0 0 1 2
2209 1 2.03975 -5.58705 0.02 0 0 0 1 2
2208 1 1.83142 -5.58573 0.02 0 0 0 1 2
2207 1 1.80929 -5.39695 0.02 0 0 0 1 2
2216 1 2.67537 -5.40096 0.02 0 0 0 1 2
2214 1 2.64579 -5.58955 0.02 0 0 0 1 2
2215 1 2.44613 -5.38031 0.02 0 0 0 1 2
2213 1 2.44445 -5.5651 0.02 0 0 0 1 2
2219 1 2.72335 -5.2199 0.02 0 0 0 1 2
2220 1 2.93428 -5.21781 0.02 0 0 0 1 2
2218 1 2.90177 -5.40162 0.02 0 0 0 1 2
2217 1 2.85138 -5.5831 0.02 0 0 0 1 2
2229 1 2.27611 -5.03667 0.02 0 0 0 1 2
2228 1 2.25816 -5.21635 0.02 0 0 0 1 2
2227 1 2.09388 -4.85243 0.02 0 0 0 1 2
2226 1 2.05611 -5.03345 0.02 0 0 0 1 2
2225 1 2.02586 -5.21235 0.02 0 0 0 1 2
2221 1 1.80583 -5.20967 0.02 0 0 0 1 2
2223 1 1.82812 -5.02856 0.02 0 0 0 1 2
2224 1 1.87138 -4.85148 0.02 0 0 0 1 2
2234 1 2.70539 -5.03303 0.02 0 0 0 1 2
2233 1 2.52842 -4.84693 0.02 0 0 0 1 2
2232 1 2.48983 -5.02973 0.02 0 0 0 1 2
2231 1 2.50448 -5.21105 0.02 0 0 0 1 2
2230 1 2.31325 -4.85376 0.02 0 0 0 1 2
2235 1 2.74545 -4.85207 0.02 0 0 0 1 2
2237 1 2.96845 -4.85434 0.02 0 0 0 1 2
2236 1 2.92273 -5.0319 0.02 0 0 0 1 2
2244 1 2.27376 -4.67305 0.02 0 0 0 1 2
2243 1 2.10933 -4.49172 0.02 0 0 0 1 2
2242 1 2.05368 -4.66888 0.02 0 0 0 1 2
2241 1 1.87274 -4.48385 0.02 0 0 0 1 2
2240 1 1.84512 -4.66649 0.02 0 0 0 1 2
2247 1 2.559 -4.48365 0.02 0 0 0 1 2
2246 1 2.51631 -4.66598 0.02 0 0 0 1 2
2245 1 2.34606 -4.50233 0.02 0 0 0 1 2
2249 1 2.76597 -4.49409 0.02 0 0 0 1 2
2248 1 2.75849 -4.67505 0.02 0 0 0 1 2
2189 1 1.6898 -5.9796 0.02 0 1.10663e-09 1.4364e-09 1 2
2251 1 2.96958 -4.50029 0.02 0 0 0 1 2
2264 1 2.29024 -3.93088 0.02 0 0 0 1 2
2260 1 2.28229 -4.32272 0.02 0 0 0 1 2
2259 1 2.09467 -3.92102 0.02 0 0 0 1 2
2257 1 2.10478 -4.11797 0.02 0 0 0 1 2
2256 1 2.07241 -4.3071 0.02 0 0 0 1 2
2255 1 1.88871 -4.11551 0.02 0 0 0 1 2
2258 1 1.89739 -3.92505 0.02 0 0 0 1 2
2254 1 1.86428 -4.3006 0.02 0 0 0 1 2
2266 1 2.69279 -3.93179 0.02 0 0 0 1 2
2263 1 2.52151 -4.11233 0.02 0 0 0 1 2
2262 1 2.49875 -4.30065 0.02 0 0 0 1 2
2265 1 2.49057 -3.92273 0.02 0 0 0 1 2
2261 1 2.31323 -4.13064 0.02 0 0 0 1 2
2268 1 2.73066 -4.12772 0.02 0 0 0 1 2
2267 1 2.72564 -4.31213 0.02 0 0 0 1 2
2270 1 2.94864 -4.13913 0.02 0 0 0 1 2
2269 1 2.96061 -4.31783 0.02 0 0 0 1 2
2271 1 2.89459 -3.95743 0.02 0 0 0 1 2
2278 1 2.23118 -3.52872 0.02 0 0 0 1 2
2279 1 2.24685 -3.72594 0.02 0 0 0 1 2
2276 1 2.04805 -3.72231 0.02 0 0 0 1 2
2277 1 2.0262 -3.52264 0.02 0 0 0 1 2
2275 1 1.84849 -3.72616 0.02 0 0 0 1 2
2274 1 1.8245 -3.52888 0.02 0 0 0 1 2
2283 1 2.65644 -3.54144 0.02 0 0 0 1 2
2281 1 2.65874 -3.73478 0.02 0 0 0 1 2
2282 1 2.44302 -3.54809 0.02 0 0 0 1 2
2280 1 2.44845 -3.73604 0.02 0 0 0 1 2
2285 1 2.86565 -3.57722 0.02 0 0 0 1 2
2284 1 2.87163 -3.76644 0.02 0 0 0 1 2
2149 1 2.24305 -3.33918 0.02 0 0 0 1 2
2150 1 2.21135 -3.14803 0.02 0 0 0 1 2
2151 1 2.01902 -3.1147 0.02 0 0 0 1 2
2153 1 2.03124 -3.32346 0.02 0 0 0 1 2
2152 1 1.82942 -3.13149 0.02 0 0 0 1 2
2154 1 1.82445 -3.33168 0.02 0 0 0 1 2
2147 1 2.66199 -3.34695 0.02 0 0 0 1 2
2145 1 2.62109 -3.15337 0.02 0 0 0 1 2
2148 1 2.45675 -3.36021 0.02 0 0 0 1 2
2146 1 2.41538 -3.17037 0.02 0 0 0 1 2
2173 1 1.6674 -6.35963 0.02 0 7.51152e-06 6.29753e-06 1 2
2144 1 2.86379 -3.38146 0.02 0 0 0 1 2
2143 1 2.82628 -3.17868 0.02 0 0 0 1 2
2136 1 2.23116 -2.95325 0.02 0 0 0 1 2
2133 1 2.22638 -2.75172 0.02 0 0 0 1 2
2135 1 2.03531 -2.7004 0.02 0 0 0 1 2
2137 1 2.03754 -2.90633 0.02 0 0 0 1 2
2138 1 1.84809 -2.91284 0.02 0 0 0 1 2
2134 1 1.84692 -2.68472 0.02 0 0 0 1 2
2129 1 2.60692 -2.756 0.02 0 0 0 1 2
2131 1 2.63525 -2.95815 0.02 0 0 0 1 2
2132 1 2.43261 -2.9752 0.02 0 0 0 1 2
2130 1 2.41766 -2.77288 0.02 0 0 0 1 2
2091 1 1.71995 -1.41351 0.02 0 0 0 1 2
2076 1 1.68052 -1.20811 0.02 0 0 0 1 2
2126 1 2.80059 -2.78375 0.02 0 0 0 1 2
2128 1 2.84019 -2.98033 0.02 0 0 0 1 2
2119 1 2.21379 -2.54709 0.02 0 0 0 1 2
2117 1 2.21213 -2.3438 0.02 0 0 0 1 2
2118 1 2.0157 -2.28702 0.02 0 0 0 1 2
2120 1 2.02174 -2.49265 0.02 0 0 0 1 2
2121 1 1.83001 -2.46414 0.02 0 0 0 1 2
2122 1 1.82098 -2.25416 0.02 0 0 0 1 2
2113 1 2.60313 -2.35355 0.02 0 0 0 1 2
2115 1 2.5945 -2.55237 0.02 0 0 0 1 2
2116 1 2.40449 -2.55829 0.02 0 0 0 1 2
2114 1 2.40598 -2.34155 0.02 0 0 0 1 2
2109 1 2.97016 -2.30904 0.02 0 0 0 1 2
2111 1 2.97526 -2.54253 0.02 0 0 0 1 2
2110 1 2.7973 -2.37813 0.02 0 0 0 1 2
2112 1 2.78923 -2.58323 0.02 0 0 0 1 2
2105 1 2.00078 -2.07835 0.02 0 0 0 1 2
2103 1 1.97091 -1.86398 0.02 0 0 0 1 2
2102 1 2.1567 -1.9211 0.02 0 0 0 1 2
2104 1 2.19085 -2.13736 0.02 0 0 0 1 2
2107 1 1.80619 -2.04609 0.02 0 0 0 1 2
2097 1 2.69309 -1.95318 0.02 0 0 0 1 2
2098 1 2.51121 -1.93371 0.02 0 0 0 1 2
2100 1 2.56 -2.153 0.02 0 0 0 1 2
2101 1 2.37441 -2.11748 0.02 0 0 0 1 2
2099 1 2.3347 -1.88565 0.02 0 0 0 1 2
2096 1 2.75262 -2.16444 0.02 0 0 0 1 2
2075 1 1.6616 -1.00736 0.02 0 0 0 1 2
2095 1 2.92744 -2.1014 0.02 0 0 0 1 2
2094 1 2.86427 -1.89427 0.02 0 0 0 1 2
2084 1 2.28312 -1.45769 0.02 0 0 0 1 2
2087 1 2.1015 -1.46824 0.02 0 0 0 1 2
2089 1 2.11138 -1.6947 0.02 0 0 0 1 2
2090 1 1.92772 -1.64492 0.02 0 0 0 1 2
2088 1 1.91621 -1.43509 0.02 0 0 0 1 2
2082 1 2.66091 -1.733 0.02 0 0 0 1 2
2081 1 2.64529 -1.50825 0.02 0 0 0 1 2
2083 1 2.46528 -1.47825 0.02 0 0 0 1 2
2085 1 2.47949 -1.70098 0.02 0 0 0 1 2
2086 1 2.29394 -1.6724 0.02 0 0 0 1 2
2174 1 1.6987 -6.17071 0.02 0 1.9776e-07 2.27087e-07 1 2
2077 1 2.98288 -1.37464 0.02 0 0 0 1 2
2079 1 2.81886 -1.45199 0.02 0 0 0 1 2
2080 1 2.83452 -1.67593 0.02 0 0 0 1 2
2069 1 2.25381 -1.03348 0.02 0 0 0 1 2
2070 1 2.25996 -1.24399 0.02 0 0 0 1 2
2071 1 2.05926 -1.03504 0.02 0 0 0 1 2
2073 1 2.07126 -1.24415 0.02 0 0 0 1 2
2074 1 1.87783 -1.23077 0.02 0 0 0 1 2
2072 1 1.86198 -1.02554 0.02 0 0 0 1 2
2066 1 2.62709 -1.05121 0.02 0 0 0 1 2
2065 1 2.63471 -1.28045 0.02 0 0 0 1 2
2068 1 2.44898 -1.26074 0.02 0 0 0 1 2
2067 1 2.44327 -1.04626 0.02 0 0 0 1 2
2061 1 2.98385 -0.925982 0.02 0 0 0 1 2
2062 1 2.98655 -1.14477 0.02 0 0 0 1 2
2063 1 2.80522 -0.999003 0.02 0 0 0 1 2
2064 1 2.81124 -1.2208 0.02 0 0 0 1 2
2053 1 2.24128 -0.826347 0.02 0 0 0 1 2
2054 1 2.20732 -0.618916 0.02 0 0 0 1 2
2055 1 2.01616 -0.628898 0.02 0 0 0 1 2
2057 1 2.04318 -0.832632 0.02 0 0 0 1 2
2056 1 1.82221 -0.613201 0.02 0 0 0 1 2
2058 1 1.84372 -0.819929 0.02 0 0 0 1 2
2050 1 2.58218 -0.598796 0.02 0 0 0 1 2
2049 1 2.6183 -0.821662 0.02 0 0 0 1 2
2052 1 2.43343 -0.829479 0.02 0 0 0 1 2
2051 1 2.3964 -0.615255 0.02 0 0 0 1 2
2106 1 1.7794 -1.83614 0.02 0 0 0 1 2
2044 1 1.78964 -0.406124 0.02 0 0 0 1 2
2043 1 1.77136 -0.196512 0.02 0 0 0 1 2
2092 1 1.73799 -1.62282 0.02 0 0 0 1 2
2037 1 2.16583 0.243059 0.02 0 0 0 1 2
2036 1 2.12775 0.0146403 0.02 0 0 0 1 2
2033 1 1.97888 0.216003 0.02 0 0 0 1 2
2034 1 1.97364 0.424276 0.02 0 0 0 1 2
2035 1 1.93938 0.00901173 0.02 0 0 0 1 2
2045 1 2.71171 0.0351082 0.02 0 0 0 1 2
2041 1 2.54725 0.260252 0.02 0 0 0 1 2
2042 1 2.51441 0.0415298 0.02 0 0 0 1 2
2038 1 2.31703 0.0139935 0.02 0 0 0 1 2
2039 1 2.35611 0.213481 0.02 0 0 0 1 2
2040 1 2.35051 0.417667 0.02 0 0 0 1 2
2043 1 2.74114 0.23525 0.02 0 0 0 1 2
2044 1 2.94333 0.248268 0.02 0 0 0 1 2
2046 1 2.92128 0.0565639 0.02 0 0 0 1 2
2052 1 2.16206 0.465903 0.02 0 0 0 1 2
2053 1 2.16613 0.683296 0.02 0 0 0 1 2
2050 1 1.97812 0.634414 0.02 0 0 0 1 2
2051 1 1.98461 0.848641 0.02 0 0 0 1 2
2054 1 2.53652 0.478881 0.02 0 0 0 1 2
2056 1 2.52908 0.689725 0.02 0 0 0 1 2
2055 1 2.34772 0.632968 0.02 0 0 0 1 2
2057 1 2.36023 0.868113 0.02 0 0 0 1 2
2058 1 2.72568 0.442989 0.02 0 0 0 1 2
2060 1 2.71972 0.657818 0.02 0 0 0 1 2
2059 1 2.92185 0.443638 0.02 0 0 0 1 2
2061 1 2.91163 0.644073 0.02 0 0 0 1 2
2062 1 2.92595 0.852158 0.02 0 0 0 1 2
2069 1 2.15689 1.29997 0.02 0 0 0 1 2
2067 1 2.17307 0.88937 0.02 0 0 0 1 2
2068 1 2.1614 1.09195 0.02 0 0 0 1 2
2065 1 1.97139 1.06422 0.02 0 0 0 1 2
2066 1 1.97002 1.27921 0.02 0 0 0 1 2
2071 1 2.54009 1.08696 0.02 0 0 0 1 2
2072 1 2.53936 1.29024 0.02 0 0 0 1 2
2073 1 2.55124 0.888006 0.02 0 0 0 1 2
2070 1 2.35117 1.09204 0.02 0 0 0 1 2
2074 1 2.34726 1.30394 0.02 0 0 0 1 2
2075 1 2.74097 0.87288 0.02 0 0 0 1 2
2076 1 2.73062 1.08721 0.02 0 0 0 1 2
2077 1 2.73274 1.29444 0.02 0 0 0 1 2
2079 1 2.92688 1.28015 0.02 0 0 0 1 2
2078 1 2.91734 1.07091 0.02 0 0 0 1 2
2083 1 1.95224 1.68567 0.02 0 0 0 1 2
2085 1 2.16541 1.70509 0.02 0 0 0 1 2
2084 1 2.12212 1.50668 0.02 0 0 0 1 2
2082 1 1.92716 1.48506 0.02 0 0 0 1 2
2089 1 2.59146 1.67867 0.02 0 0 0 1 2
2088 1 2.52653 1.49143 0.02 0 0 0 1 2
2087 1 2.37851 1.69224 0.02 0 0 0 1 2
2086 1 2.3208 1.50485 0.02 0 0 0 1 2
2090 1 2.73656 1.49215 0.02 0 0 0 1 2
2143 1 1.60359 3.16915 0.02 0 0 0 1 2
2092 1 2.94621 1.47698 0.02 0 0 0 1 2
2091 1 2.80379 1.67673 0.02 0 0 0 1 2
2097 1 1.97618 2.07045 0.02 0 0 0 1 2
2096 1 1.98797 1.8791 0.02 0 0 0 1 2
2098 1 2.19824 1.89882 0.02 0 0 0 1 2
2099 1 2.18981 2.09218 0.02 0 0 0 1 2
2102 1 2.61513 1.86944 0.02 0 0 0 1 2
2103 1 2.61168 2.06194 0.02 0 0 0 1 2
2100 1 2.4064 1.8822 0.02 0 0 0 1 2
2101 1 2.40079 2.07554 0.02 0 0 0 1 2
2144 1 1.61265 3.37484 0.02 0 0 0 1 2
2123 1 1.62237 2.77537 0.02 0 0 0 1 2
2104 1 2.82976 1.86411 0.02 0 0 0 1 2
2105 1 2.82112 2.05093 0.02 0 0 0 1 2
2115 1 2.24547 2.28011 0.02 0 0 0 1 2
2117 1 2.26962 2.4728 0.02 0 0 0 1 2
2111 1 2.02837 2.26125 0.02 0 0 0 1 2
2113 1 2.06044 2.45268 0.02 0 0 0 1 2
2114 1 1.84089 2.60767 0.02 0 0 0 1 2
2112 1 1.84401 2.41719 0.02 0 0 0 1 2
2110 1 1.80847 2.22999 0.02 0 0 0 1 2
2119 1 2.66033 2.25117 0.02 0 0 0 1 2
2120 1 2.67126 2.44706 0.02 0 0 0 1 2
2116 1 2.45346 2.2647 0.02 0 0 0 1 2
2118 1 2.47206 2.46162 0.02 0 0 0 1 2
2121 1 2.87274 2.23351 0.02 0 0 0 1 2
2122 1 2.86993 2.42432 0.02 0 0 0 1 2
2130 1 2.25563 2.6637 0.02 0 0 0 1 2
2131 1 2.2352 2.85568 0.02 0 0 0 1 2
2129 1 2.00362 3.03534 0.02 0 0 0 1 2
2126 1 2.04552 2.64459 0.02 0 0 0 1 2
2128 1 2.03193 2.83916 0.02 0 0 0 1 2
2127 1 1.8293 2.80212 0.02 0 0 0 1 2
2125 1 1.80584 2.99882 0.02 0 0 0 1 2
2137 1 2.67922 2.64228 0.02 0 0 0 1 2
2134 1 2.64311 2.83725 0.02 0 0 0 1 2
2135 1 2.63615 3.03093 0.02 0 0 0 1 2
2132 1 2.46862 2.65746 0.02 0 0 0 1 2
2133 1 2.43953 2.85041 0.02 0 0 0 1 2
2136 1 2.42056 3.04037 0.02 0 0 0 1 2
2222 1 1.65963 5.62531 0.02 0 0 0 1 2
2175 1 1.71036 3.99507 0.02 0 0 0 1 2
2138 1 2.88891 2.61868 0.02 0 0 0 1 2
2139 1 2.84646 2.81327 0.02 0 0 0 1 2
2140 1 2.84902 3.00747 0.02 0 0 0 1 2
2148 1 1.99963 3.43993 0.02 0 0 0 1 2
2147 1 2.0025 3.23538 0.02 0 0 0 1 2
2149 1 2.20759 3.04792 0.02 0 0 0 1 2
2150 1 2.20614 3.24229 0.02 0 0 0 1 2
2151 1 2.19374 3.44129 0.02 0 0 0 1 2
2146 1 1.80659 3.40503 0.02 0 0 0 1 2
2145 1 1.80243 3.20054 0.02 0 0 0 1 2
2154 1 2.62567 3.22198 0.02 0 0 0 1 2
2155 1 2.61161 3.41416 0.02 0 0 0 1 2
2152 1 2.41605 3.22709 0.02 0 0 0 1 2
2153 1 2.39474 3.41402 0.02 0 0 0 1 2
2124 1 1.60628 2.96941 0.02 0 0 0 1 2
2108 1 1.62199 2.39441 0.02 0 0 0 1 2
2156 1 2.83655 3.19848 0.02 0 0 0 1 2
2157 1 2.82023 3.39011 0.02 0 0 0 1 2
2166 1 2.26031 3.63092 0.02 0 0 0 1 2
2168 1 2.28144 3.82453 0.02 0 0 0 1 2
2163 1 2.05631 3.64472 0.02 0 0 0 1 2
2165 1 2.08024 3.84819 0.02 0 0 0 1 2
2164 1 1.88112 3.8167 0.02 0 0 0 1 2
2162 1 1.8518 3.61296 0.02 0 0 0 1 2
2170 1 2.66761 3.605 0.02 0 0 0 1 2
2171 1 2.70408 3.79564 0.02 0 0 0 1 2
2167 1 2.46261 3.59356 0.02 0 0 0 1 2
2169 1 2.48851 3.78237 0.02 0 0 0 1 2
2161 1 1.68339 3.789 0.02 0 0 0 1 2
2172 1 2.86546 3.58233 0.02 0 0 0 1 2
2173 1 2.90867 3.78013 0.02 0 0 0 1 2
2180 1 2.12097 4.25642 0.02 0 0 0 1 2
2178 1 2.10376 4.0519 0.02 0 0 0 1 2
2177 1 1.90602 4.02299 0.02 0 0 0 1 2
2179 1 1.92233 4.22758 0.02 0 0 0 1 2
2185 1 2.70507 4.17791 0.02 0 0 0 1 2
2184 1 2.50663 4.16658 0.02 0 0 0 1 2
2182 1 2.50668 3.97069 0.02 0 0 0 1 2
2183 1 2.31437 4.21997 0.02 0 0 0 1 2
2181 1 2.30249 4.01862 0.02 0 0 0 1 2
2186 1 2.71938 3.98501 0.02 0 0 0 1 2
2187 1 2.92823 3.97931 0.02 0 0 0 1 2
2188 1 2.90369 4.17872 0.02 0 0 0 1 2
2192 1 1.95432 4.43607 0.02 0 0 0 1 2
2195 1 2.13315 4.66681 0.02 0 0 0 1 2
2193 1 2.14473 4.46491 0.02 0 0 0 1 2
2194 1 1.93774 4.64357 0.02 0 0 0 1 2
2202 1 2.69542 4.57729 0.02 0 0 0 1 2
2201 1 2.69811 4.37631 0.02 0 0 0 1 2
2200 1 2.66458 4.78249 0.02 0 0 0 1 2
2199 1 2.50617 4.59842 0.02 0 0 0 1 2
2197 1 2.50768 4.37551 0.02 0 0 0 1 2
2198 1 2.32606 4.65198 0.02 0 0 0 1 2
2196 1 2.32865 4.43165 0.02 0 0 0 1 2
2203 1 2.89037 4.38771 0.02 0 0 0 1 2
2204 1 2.88499 4.60329 0.02 0 0 0 1 2
2213 1 2.27036 5.07323 0.02 0 0 0 1 2
2208 1 2.10405 4.86415 0.02 0 0 0 1 2
2210 1 2.07264 5.05907 0.02 0 0 0 1 2
2207 1 1.90794 4.84671 0.02 0 0 0 1 2
2209 1 1.87544 5.04711 0.02 0 0 0 1 2
2215 1 2.65571 5.00509 0.02 0 0 0 1 2
2214 1 2.46605 5.04537 0.02 0 0 0 1 2
2212 1 2.48516 4.83342 0.02 0 0 0 1 2
2211 1 2.29757 4.86501 0.02 0 0 0 1 2
2109 1 1.63548 2.5827 0.02 0 0 0 1 2
2160 1 1.65012 3.58294 0.02 0 0 0 1 2
2176 1 1.71964 4.19723 0.02 0 0 0 1 2
2217 1 2.84383 5.02659 0.02 0 0 0 1 2
2216 1 2.85062 4.81643 0.02 0 0 0 1 2
2231 1 2.28887 5.46271 0.02 0 0 0 1 2
2229 1 2.28265 5.27131 0.02 0 0 0 1 2
2234 1 2.28836 5.64708 0.02 0 0 0 1 2
2226 1 2.08502 5.44311 0.02 0 0 0 1 2
2223 1 2.07455 5.25264 0.02 0 0 0 1 2
2228 1 2.06523 5.62895 0.02 0 0 0 1 2
2225 1 1.8826 5.4397 0.02 0 0 0 1 2
2224 1 1.86565 5.2438 0.02 0 0 0 1 2
2227 1 1.85482 5.63138 0.02 0 0 0 1 2
2237 1 2.70631 5.63775 0.02 0 0 0 1 2
2236 1 2.69262 5.43734 0.02 0 0 0 1 2
2235 1 2.67046 5.2257 0.02 0 0 0 1 2
2230 1 2.48082 5.24663 0.02 0 0 0 1 2
2232 1 2.49301 5.44626 0.02 0 0 0 1 2
2233 1 2.50178 5.64281 0.02 0 0 0 1 2
2240 1 2.90754 5.63177 0.02 0 0 0 1 2
2239 1 2.89222 5.43171 0.02 0 0 0 1 2
2238 1 2.85985 5.23146 0.02 0 0 0 1 2
2244 1 2.09377 5.81132 0.02 0 3.56933e-11 -1.52554e-10 1 2
2246 1 2.11901 5.99766 0.02 0 2.50767e-08 -8.31414e-08 1 2
2243 1 1.8839 5.82225 0.02 0 3.7682e-12 -1.16078e-11 1 2
2245 1 1.91855 6.01246 0.02 0 7.70112e-09 -2.14557e-08 1 2
2250 1 2.54803 6.02674 0.02 0 8.27037e-08 -2.457e-07 1 2
2248 1 2.51474 5.8373 0.02 0 1.18761e-10 -4.41467e-10 1 2
2249 1 2.32985 6.01262 0.02 0 5.16156e-08 -1.64835e-07 1 2
2247 1 2.3067 5.82959 0.02 0 7.16864e-11 -2.80729e-10 1 2
2253 1 2.75936 6.02306 0.02 0 7.77791e-08 -1.7122e-07 1 2
2251 1 2.71833 5.83416 0.02 0 2.06024e-10 -6.79904e-10 1 2
2254 1 2.97391 6.01525 0.02 0 1.58448e-07 -2.18504e-07 1 2
2252 1 2.9212 5.82955 0.02 0 2.72816e-10 -5.13538e-10 1 2
2259 1 1.96323 6.37909 0.02 0 2.4902e-05 -4.34981e-05 1 2
2260 1 2.17112 6.37171 0.02 0 4.07137e-05 -5.8676e-05 1 2
2258 1 2.14456 6.1851 0.02 0 2.87998e-06 -5.91085e-06 1 2
2257 1 1.93353 6.20041 0.02 0 1.3564e-06 -2.65168e-06 1 2
2264 1 2.56425 6.40804 0.02 0 7.35977e-05 -8.82394e-05 1 2
2262 1 2.57383 6.21412 0.02 0 6.7686e-06 -1.14794e-05 1 2
2263 1 2.37031 6.37702 0.02 0 5.266e-05 -6.18882e-05 1 2
2261 1 2.36067 6.19252 0.02 0 4.57602e-06 -8.2596e-06 1 2
2267 1 2.75779 6.38682 0.02 0 6.90438e-05 -8.42921e-05 1 2
2191 1 1.71825 4.78246 0.02 0 0 0 1 2
2268 1 2.96697 6.3837 0.02 0 9.42544e-05 -9.54488e-05 1 2
2265 1 2.79148 6.20568 0.02 0 6.10763e-06 -9.76976e-06 1 2
2272 1 2.00708 6.72909 0.02 0 -0.000760433 0.000122333 1 2
2271 1 2.19621 6.75439 0.02 0 -0.00115172 0.000166879 1 2
2274 1 2.17279 6.55988 0.02 0 5.22391e-05 -0.000185112 1 2
2273 1 1.96117 6.5555 0.02 0 0.000100482 -0.000255553 1 2
2269 1 1.8114 6.76472 0.02 0 -0.00196313 0.000749769 1 2
2278 1 2.58782 6.59218 0.02 0 -0.000110872 -9.65087e-05 1 2
2275 1 2.60621 6.77622 0.02 0 -0.00111906 0.000168401 1 2
2276 1 2.3895 6.7412 0.02 0 -0.00109584 0.000183573 1 2
2277 1 2.37915 6.5618 0.02 0 -1.94103e-05 -0.000129914 1 2
2205 1 1.6885 4.9823 0.02 0 0 0 1 2
2206 1 1.67057 5.19135 0.02 0 0 0 1 2
2281 1 2.79086 6.56796 0.02 0 -1.76519e-05 -0.000102867 1 2
2280 1 2.81875 6.74923 0.02 0 -0.000964386 0.000215414 1 2
36 2 2.1996 7.2 0.02 0 0 0 1.00021 5
2 2 2.1996 7 0.02 0 0 0 1.00013 5
1 2 1.9996 7 0.02 0 0 0 1.00059 5
35 2 1.9996 7.2 0.02 0 0 0 1.00035 5
4 2 2.5996 7 0.02 0 0 0 1.00009 5
38 2 2.5996 7.2 0.02 0 0 0 1.00019 5
37 2 2.3996 7.2 0.02 0 0 0 1.00043 5
3 2 2.3996 7 0.02 0 0 0 1.00008 5
9 2 2 7 0 0 0 0 1.00059 5
10 2 2.2 7 0 0 0 0 1.00013 5
11 2 2.4 7 0 0 0 0 1.00008 5
43 2 2 7.2 0 0 0 0 1.00035 5
44 2 2.2 7.2 0 0 0 0 1.0002 5
45 2 2.4 7.2 0 0 0 0 1.00043 5
2221 1 1.68939 5.40931 0.02 0 0 0 1 2
2241 1 1.68367 5.83395 0.02 0 0 0 1 2
5 2 2.7996 7 0.02 0 0 0 0.999658 5
39 2 2.7996 7.2 0.02 0 0 0 0.99931 5
454 2 2.6 9.6 0 0 0 0 1 5
455 2 2.8 9.6 0 0 0 0 1 5
12 2 2.6 7 0 0 0 0 1.00009 5
13 2 2.8 7 0 0 0 0 0.999657 5
46 2 2.6 7.2 0 0 0 0 1.00018 5
47 2 2.8 7.2 0 0 0 0 0.99931 5
103 2 1.9996 7.6 0.02 0 0 0 1 5
69 2 1.9996 7.4 0.02 0 0 0 0.998493 5
104 2 2.1996 7.6 0.02 0 0 0 1 5
70 2 2.1996 7.4 0.02 0 0 0 0.999925 5
138 2 2.1996 7.8 0.02 0 0 0 1 5
137 2 1.9996 7.8 0.02 0 0 0 1 5
140 2 2.5996 7.8 0.02 0 0 0 1 5
106 2 2.5996 7.6 0.02 0 0 0 1 5
72 2 2.5996 7.4 0.02 0 0 0 1.00015 5
71 2 2.3996 7.4 0.02 0 0 0 1.00235 5
105 2 2.3996 7.6 0.02 0 0 0 1 5
139 2 2.3996 7.8 0.02 0 0 0 1 5
145 2 2 7.8 0 0 0 0 1 5
146 2 2.2 7.8 0 0 0 0 1 5
147 2 2.4 7.8 0 0 0 0 1 5
113 2 2.4 7.6 0 0 0 0 1 5
112 2 2.2 7.6 0 0 0 0 1 5
111 2 2 7.6 0 0 0 0 1 5
77 2 2 7.4 0 0 0 0 0.998514 5
78 2 2.2 7.4 0 0 0 0 0.999916 5
79 2 2.4 7.4 0 0 0 0 1.00236 5
2242 1 1.71992 6.03142 0.02 0 0 0 1 2
2255 1 1.72577 6.22219 0.02 0 0 0 1 2
2095 1 1.75623 2.04403 0.02 0 0 0 1 2
141 2 2.7996 7.8 0.02 0 0 0 1 5
107 2 2.7996 7.6 0.02 0 0 0 1 5
73 2 2.7996 7.4 0.02 0 0 0 0.998255 5
488 2 2.6 9.8 0 0 0 0 1 5
489 2 2.8 9.8 0 0 0 0 1 5
447 2 2.7996 9.6 0.02 0 0 0 1 5
115 2 2.8 7.6 0 0 0 0 1 5
114 2 2.6 7.6 0 0 0 0 1 5
148 2 2.6 7.8 0 0 0 0 1 5
149 2 2.8 7.8 0 0 0 0 1 5
80 2 2.6 7.4 0 0 0 0 1.00014 5
81 2 2.8 7.4 0 0 0 0 0.998263 5
205 2 1.9996 8.2 0.02 0 0 0 1 5
171 2 1.9996 8 0.02 0 0 0 1 5
206 2 2.1996 8.2 0.02 0 0 0 1 5
172 2 2.1996 8 0.02 0 0 0 1 5
174 2 2.5996 8 0.02 0 0 0 1 5
208 2 2.5996 8.2 0.02 0 0 0 1 5
207 2 2.3996 8.2 0.02 0 0 0 1 5
173 2 2.3996 8 0.02 0 0 0 1 5
179 2 2 8 0 0 0 0 1 5
180 2 2.2 8 0 0 0 0 1 5
181 2 2.4 8 0 0 0 0 1 5
213 2 2 8.2 0 0 0 0 1 5
214 2 2.2 8.2 0 0 0 0 1 5
215 2 2.4 8.2 0 0 0 0 1 5
2094 1 1.77843 1.85478 0.02 0 0 0 1 2
2189 1 1.75795 4.39304 0.02 0 0 0 1 2
175 2 2.7996 8 0.02 0 0 0 1 5
209 2 2.7996 8.2 0.02 0 0 0 1 5
481 2 2.7996 9.8 0.02 0 0 0 1 5
2190 1 1.74558 4.58718 0.02 0 0 0 1 2
182 2 2.6 8 0 0 0 0 1 5
183 2 2.8 8 0 0 0 0 1 5
216 2 2.6 8.2 0 0 0 0 1 5
217 2 2.8 8.2 0 0 0 0 1 5
239 2 1.9996 8.4 0.02 0 0 0 1 5
273 2 1.9996 8.6 0.02 0 0 0 1 5
274 2 2.1996 8.6 0.02 0 0 0 1 5
240 2 2.1996 8.4 0.02 0 0 0 1 5
276 2 2.5996 8.6 0.02 0 0 0 1 5
242 2 2.5996 8.4 0.02 0 0 0 1 5
241 2 2.3996 8.4 0.02 0 0 0 1 5
275 2 2.3996 8.6 0.02 0 0 0 1 5
283 2 2.4 8.6 0 0 0 0 1 5
282 2 2.2 8.6 0 0 0 0 1 5
281 2 2 8.6 0 0 0 0 1 5
249 2 2.4 8.4 0 0 0 0 1 5
248 2 2.2 8.4 0 0 0 0 1 5
247 2 2 8.4 0 0 0 0 1 5
2081 1 1.73986 1.66141 0.02 0 0 0 1 2
2080 1 1.73356 1.46151 0.02 0 0 0 1 2
277 2 2.7996 8.6 0.02 0 0 0 1 5
243 2 2.7996 8.4 0.02 0 0 0 1 5
2064 1 1.78121 1.26198 0.02 0 0 0 1 2
451 2 2 9.6 0 0 0 0 1 5
285 2 2.8 8.6 0 0 0 0 1 5
284 2 2.6 8.6 0 0 0 0 1 5
251 2 2.8 8.4 0 0 0 0 1 5
250 2 2.6 8.4 0 0 0 0 1 5
342 2 2.1996 9 0.02 0 0 0 1 5
308 2 2.1996 8.8 0.02 0 0 0 1 5
307 2 1.9996 8.8 0.02 0 0 0 1 5
341 2 1.9996 9 0.02 0 0 0 1 5
310 2 2.5996 8.8 0.02 0 0 0 1 5
344 2 2.5996 9 0.02 0 0 0 1 5
309 2 2.3996 8.8 0.02 0 0 0 1 5
343 2 2.3996 9 0.02 0 0 0 1 5
351 2 2.4 9 0 0 0 0 1 5
350 2 2.2 9 0 0 0 0 1 5
349 2 2 9 0 0 0 0 1 5
317 2 2.4 8.8 0 0 0 0 1 5
316 2 2.2 8.8 0 0 0 0 1 5
315 2 2 8.8 0 0 0 0 1 5
2063 1 1.77938 1.05801 0.02 0 0 0 1 2
2049 1 1.79334 0.853529 0.02 0 0 0 1 2
345 2 2.7996 9 0.02 0 0 0 1 5
311 2 2.7996 8.8 0.02 0 0 0 1 5
452 2 2.2 9.6 0 0 0 0 1 5
453 2 2.4 9.6 0 0 0 0 1 5
353 2 2.8 9 0 0 0 0 1 5
352 2 2.6 9 0 0 0 0 1 5
319 2 2.8 8.8 0 0 0 0 1 5
318 2 2.6 8.8 0 0 0 0 1 5
376 2 2.1996 9.2 0.02 0 0 0 1 5
410 2 2.1996 9.4 0.02 0 0 0 1 5
409 2 1.9996 9.4 0.02 0 0 0 1 5
375 2 1.9996 9.2 0.02 0 0 0 1 5
378 2 2.5996 9.2 0.02 0 0 0 1 5
412 2 2.5996 9.4 0.02 0 0 0 1 5
411 2 2.3996 9.4 0.02 0 0 0 1 5
377 2 2.3996 9.2 0.02 0 0 0 1 5
419 2 2.4 9.4 0 0 0 0 1 5
418 2 2.2 9.4 0 0 0 0 1 5
417 2 2 9.4 0 0 0 0 1 5
385 2 2.4 9.2 0 0 0 0 1 5
384 2 2.2 9.2 0 0 0 0 1 5
383 2 2 9.2 0 0 0 0 1 5
2048 1 1.7857 0.645737 0.02 0 0 0 1 2
2047 1 1.78277 0.434965 0.02 0 0 0 1 2
413 2 2.7996 9.4 0.02 0 0 0 1 5
379 2 2.7996 9.2 0.02 0 0 0 1 5
485 2 2 9.8 0 0 0 0 1 5
486 2 2.2 9.8 0 0 0 0 1 5
421 2 2.8 9.4 0 0 0 0 1 5
420 2 2.6 9.4 0 0 0 0 1 5
387 2 2.8 9.2 0 0 0 0 1 5
386 2 2.6 9.2 0 0 0 0 1 5
478 2 2.1996 9.8 0.02 0 0 0 1 5
444 2 2.1996 9.6 0.02 0 0 0 1 5
477 2 1.9996 9.8 0.02 0 0 0 1 5
443 2 1.9996 9.6 0.02 0 0 0 1 5
446 2 2.5996 9.6 0.02 0 0 0 1 5
480 2 2.5996 9.8 0.02 0 0 0 1 5
445 2 2.3996 9.6 0.02 0 0 0 1 5
479 2 2.3996 9.8 0.02 0 0 0 1 5
487 2 2.4 9.8 0 0 0 0 1 5
2031 1 1.75073 0.0152087 0.02 0 0 0 1 2
2270 1 1.75816 6.58449 0.02 0 -7.85543e-05 1.46513e-05 1 2
2032 1 1.78566 0.224259 0.02 0 0 0 1 2
2256 1 1.74419 6.4045 0.02 0 -5.14228e-08 8.18669e-09 1 2
1583 2 3.2 -9.6 0 0 0 0 1 5
1582 2 3 -9.6 0 0 0 0 1 5
1549 2 3.2 -9.8 0 0 0 0 1 5
1548 2 3 -9.8 0 0 0 0 1 5
1515 2 3.2 -10 0 0 0 0 1 5
1514 2 3 -10 0 0 0 0 1 5
1584 2 3.4 -9.6 0 0 0 0 1 5