ITEM: TIMESTEP
27000
ITEM: NUMBER OF ATOMS
1380
ITEM: BOX BOUNDS ff ff pp
0.0000000000000000e+00 4.4000000000000004e+00
-1.0000000000000000e+01 1.0000000000000000e+01
-2.0000000000000000e-02 2.0000000000000000e-02
ITEM: ATOMS id type x y vx vy fx fy c_den c_phase
3423 1 0.839867 -6.74606 0.02 0 0 0 1 2
3426 1 0.836833 -6.55135 0.02 0 0 0 1 2
3424 1 1.03191 -6.74071 0.02 0 0 0 1 2
3425 1 1.22212 -6.73853 0.02 0 -6.87007e-14 -9.42165e-14 1 2
3427 1 1.0198 -6.54387 0.02 0 0 0 1 2
3428 1 1.19639 -6.52885 0.02 0 0 0 1 2
3429 1 1.41073 -6.73888 0.02 0 -8.52614e-07 -4.73299e-07 1 2
3328 1 1.18405 -0.178949 0.02 0 0 0 1 2
3431 1 1.37577 -6.545 0.02 0 -1.8813e-10 -5.76805e-11 1 2
3372 1 1.25195 -1.43736 0.02 0 0 0 1 2
3329 1 1.20829 -0.354571 0.02 0 0 0 1 2
3374 1 1.20844 -1.62853 0.02 0 0 0 1 2
3440 1 0.850724 -6.34641 0.02 0 0 0 1 2
3439 1 0.873388 -6.12486 0.02 0 0 0 1 2
3441 1 1.02608 -6.3224 0.02 0 0 0 1 2
3442 1 1.201 -6.31438 0.02 0 0 0 1 2
3443 1 1.21571 -6.10319 0.02 0 0 0 1 2
3444 1 1.37809 -6.33691 0.02 0 0 0 1 2
3384 1 1.42816 -1.85627 0.02 0 0 0 1 2
3446 1 1.39594 -6.12551 0.02 0 0 0 1 2
3375 1 1.04644 -1.44149 0.02 0 0 0 1 2
3330 1 0.934512 -0.164303 0.02 0 0 0 1 2
3331 1 0.988502 -0.337865 0.02 0 0 0 1 2
3455 1 0.865214 -5.88435 0.02 0 0 0 1 2
3454 1 1.04058 -6.08372 0.02 0 0 0 1 2
3456 1 1.04154 -5.86482 0.02 0 0 0 1 2
3457 1 1.2233 -5.88612 0.02 0 0 0 1 2
3458 1 0.871525 -5.65275 0.02 0 0 0 1 2
3459 1 1.0604 -5.65753 0.02 0 0 0 1 2
3460 1 1.25293 -5.67751 0.02 0 0 0 1 2
3461 1 1.40759 -5.91883 0.02 0 0 0 1 2
3377 1 1.00488 -1.63476 0.02 0 0 0 1 2
3463 1 1.44518 -5.719 0.02 0 0 0 1 2
3353 1 1.44904 -1.27092 0.02 0 0 0 1 2
3324 1 1.40201 -0.00544743 0.02 0 0 0 1 2
3325 1 1.42248 -0.186694 0.02 0 0 0 1 2
3471 1 0.869444 -5.43905 0.02 0 0 0 1 2
3472 1 1.05905 -5.44879 0.02 0 0 0 1 2
3473 1 0.899025 -5.23868 0.02 0 0 0 1 2
3474 1 1.09336 -5.24018 0.02 0 0 0 1 2
3475 1 1.24781 -5.46651 0.02 0 0 0 1 2
3476 1 1.28177 -5.25901 0.02 0 0 0 1 2
3477 1 1.43391 -5.50683 0.02 0 0 0 1 2
3376 1 0.84023 -1.43462 0.02 0 0 0 1 2
3479 1 1.46573 -5.29204 0.02 0 0 0 1 2
3352 1 1.45663 -1.08063 0.02 0 0 0 1 2
3326 1 1.43044 -0.366715 0.02 0 0 0 1 2
3357 1 1.00871 -0.871762 0.02 0 0 0 1 2
3488 1 0.864994 -5.04164 0.02 0 0 0 1 2
3489 1 0.928657 -4.84852 0.02 0 0 0 1 2
3490 1 1.06319 -5.03322 0.02 0 0 0 1 2
3491 1 1.13573 -4.83616 0.02 0 0 0 1 2
3492 1 1.26072 -5.0493 0.02 0 0 0 1 2
3493 1 1.3343 -4.85573 0.02 0 0 0 1 2
3494 1 1.46074 -5.08279 0.02 0 0 0 1 2
3358 1 1.02102 -1.05789 0.02 0 0 0 1 2
3385 1 1.45012 -2.04849 0.02 0 0 0 1 2
3360 1 1.03079 -1.2473 0.02 0 0 0 1 2
3503 1 0.943935 -4.65256 0.02 0 0 0 1 2
3504 1 1.1365 -4.62936 0.02 0 0 0 1 2
3505 1 0.963147 -4.447 0.02 0 0 0 1 2
3506 1 1.15846 -4.42274 0.02 0 0 0 1 2
3507 1 1.32831 -4.6478 0.02 0 0 0 1 2
3509 1 1.35222 -4.44355 0.02 0 0 0 1 2
3388 1 1.00764 -1.82838 0.02 0 0 0 1 2
3387 1 1.23647 -2.01811 0.02 0 0 0 1 2
3356 1 1.23797 -1.2477 0.02 0 0 0 1 2
3338 1 1.46659 -0.545805 0.02 0 0 0 1 2
3517 1 0.97402 -4.23977 0.02 0 0 0 1 2
3518 1 1.16643 -4.21592 0.02 0 0 0 1 2
3519 1 0.955491 -4.03087 0.02 0 0 0 1 2
3520 1 1.15127 -4.01238 0.02 0 0 0 1 2
3523 1 1.3508 -4.03445 0.02 0 0 0 1 2
3521 1 1.35809 -4.23733 0.02 0 0 0 1 2
3386 1 1.21631 -1.82425 0.02 0 0 0 1 2
3390 1 1.02688 -2.02069 0.02 0 0 0 1 2
3339 1 1.42449 -0.717509 0.02 0 0 0 1 2
3340 1 1.24157 -0.532055 0.02 0 0 0 1 2
3532 1 0.926712 -3.823 0.02 0 0 0 1 2
3533 1 1.12097 -3.81161 0.02 0 0 0 1 2
3534 1 0.887125 -3.61902 0.02 0 0 0 1 2
3535 1 1.09293 -3.61431 0.02 0 0 0 1 2
3536 1 1.32251 -3.83683 0.02 0 0 0 1 2
3538 1 1.30024 -3.64041 0.02 0 0 0 1 2
3389 1 0.800844 -1.81365 0.02 0 0 0 1 2
3391 1 0.8203 -2.00946 0.02 0 0 0 1 2
3354 1 1.22536 -0.879765 0.02 0 0 0 1 2
3341 1 1.18274 -0.701701 0.02 0 0 0 1 2
3355 1 1.24095 -1.06301 0.02 0 0 0 1 2
3548 1 0.85396 -3.42201 0.02 0 0 0 1 2
3550 1 0.816566 -3.22195 0.02 0 0 0 1 2
3549 1 1.05843 -3.4196 0.02 0 0 0 1 2
3551 1 1.01245 -3.22105 0.02 0 0 0 1 2
3552 1 1.17499 -3.05461 0.02 0 0 0 1 2
3553 1 1.21842 -3.25259 0.02 0 0 0 1 2
3554 1 1.2681 -3.44577 0.02 0 0 0 1 2
3555 1 1.46715 -3.44779 0.02 0 0 0 1 2
3556 1 1.41655 -3.23968 0.02 0 0 0 1 2
3373 1 1.40812 -1.66161 0.02 0 0 0 1 2
3371 1 1.45189 -1.46735 0.02 0 0 0 1 2
3359 1 0.807302 -1.05303 0.02 0 0 0 1 2
3327 1 1.19188 -0.00100826 0.02 0 0 0 1 2
3419 1 1.11925 -2.61866 0.02 0 0 0 1 2
3420 1 1.14665 -2.8411 0.02 0 0 0 1 2
3421 1 0.95816 -2.8055 0.02 0 0 0 1 2
3422 1 0.983133 -3.01297 0.02 0 0 0 1 2
3415 1 1.30686 -2.61135 0.02 0 0 0 1 2
3417 1 1.33321 -2.81783 0.02 0 0 0 1 2
3361 1 0.825999 -1.2436 0.02 0 0 0 1 2
3342 1 1.00784 -0.518612 0.02 0 0 0 1 2
3343 1 0.952631 -0.692423 0.02 0 0 0 1 2
3351 1 1.44226 -0.894518 0.02 0 0 0 1 2
3400 1 1.33907 -2.41304 0.02 0 0 0 1 2
3418 1 1.36413 -3.02855 0.02 0 0 0 1 2
3402 1 1.09881 -2.21184 0.02 0 0 0 1 2
3403 1 0.896059 -2.20505 0.02 0 0 0 1 2
3404 1 1.13396 -2.41029 0.02 0 0 0 1 2
3405 1 0.925919 -2.40127 0.02 0 0 0 1 2
3406 1 0.932125 -2.60028 0.02 0 0 0 1 2
3399 1 1.29994 -2.21393 0.02 0 0 0 1 2
3315 1 0.920215 0.204196 0.02 0 0 0 1 2
3316 1 0.996042 0.384557 0.02 0 0 0 1 2
3317 1 1.13087 0.175954 0.02 0 0 0 1 2
3318 1 0.97567 0.0129896 0.02 0 0 0 1 2
3319 1 1.20857 0.345641 0.02 0 0 0 1 2
3320 1 1.36546 0.178308 0.02 0 0 0 1 2
3321 1 1.41065 0.370658 0.02 0 0 0 1 2
3534 1 1.16736 6.17056 0.02 0 0 0 1 2
3533 1 0.983877 6.16841 0.02 0 0 0 1 2
3554 1 1.38968 6.73064 0.02 0 -2.1767e-07 1.17058e-07 1 2
3505 1 1.13604 5.3719 0.02 0 0 0 1 2
3331 1 0.824847 0.789319 0.02 0 0 0 1 2
3330 1 1.00254 0.57837 0.02 0 0 0 1 2
3332 1 1.02714 0.774756 0.02 0 0 0 1 2
3333 1 1.20396 0.534418 0.02 0 0 0 1 2
3334 1 1.22273 0.729299 0.02 0 0 0 1 2
3335 1 1.40442 0.575485 0.02 0 0 0 1 2
3336 1 1.40538 0.79305 0.02 0 0 0 1 2
3506 1 0.938687 5.56057 0.02 0 0 0 1 2
3507 1 1.14057 5.56919 0.02 0 0 0 1 2
3552 1 1.38757 6.5425 0.02 0 -9.46359e-11 3.72876e-11 1 2
3508 1 1.3458 5.37556 0.02 0 0 0 1 2
3548 1 1.00272 6.56745 0.02 0 0 0 1 2
3346 1 0.994996 0.975685 0.02 0 0 0 1 2
3347 1 0.959158 1.17683 0.02 0 0 0 1 2
3348 1 1.15506 1.14765 0.02 0 0 0 1 2
3349 1 1.1963 0.936337 0.02 0 0 0 1 2
3351 1 1.34413 1.19622 0.02 0 0 0 1 2
3350 1 1.38373 1.00126 0.02 0 0 0 1 2
3493 1 1.47273 4.99091 0.02 0 0 0 1 2
3504 1 0.921986 5.36944 0.02 0 0 0 1 2
3551 1 1.1978 6.74497 0.02 0 -7.57241e-16 9.44864e-16 1 2
3549 1 1.19398 6.55802 0.02 0 0 0 1 2
3362 1 0.971918 1.37483 0.02 0 0 0 1 2
3363 1 0.986553 1.56786 0.02 0 0 0 1 2
3364 1 1.17308 1.36257 0.02 0 0 0 1 2
3365 1 1.19708 1.56248 0.02 0 0 0 1 2
3366 1 1.38587 1.3854 0.02 0 0 0 1 2
3367 1 1.41147 1.56958 0.02 0 0 0 1 2
3510 1 1.33976 5.56976 0.02 0 0 0 1 2
3539 1 1.37759 6.34999 0.02 0 0 0 1 2
3550 1 0.997707 6.75825 0.02 0 0 0 1 2
3376 1 0.814541 1.94621 0.02 0 0 0 1 2
3378 1 0.836651 2.13505 0.02 0 0 0 1 2
3375 1 0.985693 1.75982 0.02 0 0 0 1 2
3377 1 1.0364 1.94221 0.02 0 0 0 1 2
3379 1 1.05726 2.12294 0.02 0 0 0 1 2
3380 1 1.19301 1.75845 0.02 0 0 0 1 2
3382 1 1.27327 1.93387 0.02 0 0 0 1 2
3384 1 1.27255 2.11742 0.02 0 0 0 1 2
3381 1 1.4102 1.75526 0.02 0 0 0 1 2
3487 1 1.07877 4.96035 0.02 0 0 0 1 2
3385 1 1.48941 2.11891 0.02 0 0 0 1 2
3537 1 1.35439 6.15436 0.02 0 0 0 1 2
3547 1 0.811438 6.57228 0.02 0 0 0 1 2
3486 1 0.88974 4.97924 0.02 0 0 0 1 2
3394 1 0.847789 2.3268 0.02 0 0 0 1 2
3397 1 0.84439 2.52306 0.02 0 0 0 1 2
3395 1 1.05713 2.30854 0.02 0 0 0 1 2
3396 1 1.04922 2.49861 0.02 0 0 0 1 2
3398 1 1.2708 2.30393 0.02 0 0 0 1 2
3400 1 1.25841 2.49342 0.02 0 0 0 1 2
3399 1 1.47664 2.31244 0.02 0 0 0 1 2
3401 1 1.46857 2.51007 0.02 0 0 0 1 2
3532 1 0.803196 6.17157 0.02 0 0 0 1 2
3536 1 1.18248 6.36768 0.02 0 0 0 1 2
3409 1 0.85279 2.71578 0.02 0 0 0 1 2
3410 1 1.06485 2.68963 0.02 0 0 0 1 2
3411 1 0.916509 2.90315 0.02 0 0 0 1 2
3412 1 1.11236 2.88205 0.02 0 0 0 1 2
3413 1 1.27542 2.68675 0.02 0 0 0 1 2
3415 1 1.30483 2.89051 0.02 0 0 0 1 2
3414 1 1.47869 2.71003 0.02 0 0 0 1 2
3416 1 1.49454 2.91807 0.02 0 0 0 1 2
3535 1 0.986845 6.37308 0.02 0 0 0 1 2
3488 1 0.925017 5.17867 0.02 0 0 0 1 2
3423 1 0.931281 3.09972 0.02 0 0 0 1 2
3424 1 0.948023 3.29669 0.02 0 0 0 1 2
3425 1 1.12577 3.08945 0.02 0 0 0 1 2
3426 1 1.13998 3.30158 0.02 0 0 0 1 2
3427 1 1.31522 3.10179 0.02 0 0 0 1 2
3429 1 1.3266 3.31379 0.02 0 0 0 1 2
3489 1 1.12221 5.17123 0.02 0 0 0 1 2
3492 1 1.27089 4.98375 0.02 0 0 0 1 2
3490 1 1.29884 4.79151 0.02 0 0 0 1 2
3519 1 1.14895 5.76924 0.02 0 0 0 1 2
3439 1 0.944107 3.49899 0.02 0 0 0 1 2
3440 1 0.928736 3.7084 0.02 0 0 0 1 2
3441 1 1.12021 3.71155 0.02 0 0 0 1 2
3442 1 1.13835 3.50843 0.02 0 0 0 1 2
3443 1 1.32533 3.54104 0.02 0 0 0 1 2
3445 1 1.30007 3.76402 0.02 0 0 0 1 2
3494 1 1.32078 5.17948 0.02 0 0 0 1 2
3446 1 1.48605 3.79492 0.02 0 0 0 1 2
3520 1 0.962289 5.96109 0.02 0 0 0 1 2
3521 1 1.15536 5.96894 0.02 0 0 0 1 2
3455 1 1.0795 3.9149 0.02 0 0 0 1 2
3456 1 0.889082 3.9248 0.02 0 0 0 1 2
3457 1 0.897862 4.14092 0.02 0 0 0 1 2
3458 1 1.08611 4.1269 0.02 0 0 0 1 2
3459 1 1.10829 4.34281 0.02 0 0 0 1 2
3460 1 1.26479 3.97811 0.02 0 0 0 1 2
3462 1 1.27376 4.19164 0.02 0 0 0 1 2
3461 1 1.45961 3.99241 0.02 0 0 0 1 2
3463 1 1.46974 4.19056 0.02 0 0 0 1 2
3522 1 1.34698 5.76649 0.02 0 0 0 1 2
3524 1 1.35507 5.96059 0.02 0 0 0 1 2
3470 1 0.916472 4.35424 0.02 0 0 0 1 2
3471 1 0.882913 4.5638 0.02 0 0 0 1 2
3472 1 1.07863 4.54974 0.02 0 0 0 1 2
3473 1 0.887097 4.77037 0.02 0 0 0 1 2
3474 1 1.08686 4.75637 0.02 0 0 0 1 2
3477 1 1.27103 4.59867 0.02 0 0 0 1 2
3475 1 1.30069 4.40013 0.02 0 0 0 1 2
3518 1 0.951865 5.7584 0.02 0 0 0 1 2
3478 1 1.47247 4.59395 0.02 0 0 0 1 2
1509 2 2 -10 0 0 0 0 1 5
1510 2 2.2 -10 0 0 0 0 1 5
1511 2 2.4 -10 0 0 0 0 1 5
1543 2 2 -9.8 0 0 0 0 1 5
1544 2 2.2 -9.8 0 0 0 0 1 5
1545 2 2.4 -9.8 0 0 0 0 1 5
1577 2 2 -9.6 0 0 0 0 1 5
1578 2 2.2 -9.6 0 0 0 0 1 5
1579 2 2.4 -9.6 0 0 0 0 1 5
1512 2 2.6 -10 0 0 0 0 1 5
1513 2 2.8 -10 0 0 0 0 1 5
1546 2 2.6 -9.8 0 0 0 0 1 5
1547 2 2.8 -9.8 0 0 0 0 1 5
1580 2 2.6 -9.6 0 0 0 0 1 5
1581 2 2.8 -9.6 0 0 0 0 1 5
1645 2 2 -9.2 0 0 0 0 1 5
1646 2 2.2 -9.2 0 0 0 0 1 5
1647 2 2.4 -9.2 0 0 0 0 1 5
1613 2 2.4 -9.4 0 0 0 0 1 5
1612 2 2.2 -9.4 0 0 0 0 1 5
1611 2 2 -9.4 0 0 0 0 1 5
1648 2 2.6 -9.2 0 0 0 0 1 5
1649 2 2.8 -9.2 0 0 0 0 1 5
1615 2 2.8 -9.4 0 0 0 0 1 5
1614 2 2.6 -9.4 0 0 0 0 1 5
1679 2 2 -9 0 0 0 0 1 5
1680 2 2.2 -9 0 0 0 0 1 5
1681 2 2.4 -9 0 0 0 0 1 5
1713 2 2 -8.8 0 0 0 0 1 5
1714 2 2.2 -8.8 0 0 0 0 1 5
1715 2 2.4 -8.8 0 0 0 0 1 5
1682 2 2.6 -9 0 0 0 0 1 5
1683 2 2.8 -9 0 0 0 0 1 5
1716 2 2.6 -8.8 0 0 0 0 1 5
1717 2 2.8 -8.8 0 0 0 0 1 5
1783 2 2.4 -8.4 0 0 0 0 1 5
1782 2 2.2 -8.4 0 0 0 0 1 5
1781 2 2 -8.4 0 0 0 0 1 5
1747 2 2 -8.6 0 0 0 0 1 5
1748 2 2.2 -8.6 0 0 0 0 1 5
1749 2 2.4 -8.6 0 0 0 0 1 5
1785 2 2.8 -8.4 0 0 0 0 1 5
1784 2 2.6 -8.4 0 0 0 0 1 5
1750 2 2.6 -8.6 0 0 0 0 1 5
1751 2 2.8 -8.6 0 0 0 0 1 5
1851 2 2.4 -8 0 0 0 0 1 5
1850 2 2.2 -8 0 0 0 0 1 5
1849 2 2 -8 0 0 0 0 1 5
1817 2 2.4 -8.2 0 0 0 0 1 5
1816 2 2.2 -8.2 0 0 0 0 1 5
1815 2 2 -8.2 0 0 0 0 1 5
1853 2 2.8 -8 0 0 0 0 1 5
1852 2 2.6 -8 0 0 0 0 1 5
1819 2 2.8 -8.2 0 0 0 0 1 5
1818 2 2.6 -8.2 0 0 0 0 1 5
1953 2 2.4 -7.4 0 0 0 0 0.986199 5
1952 2 2.2 -7.4 0 0 0 0 0.998758 5
1951 2 2 -7.4 0 0 0 0 0.999243 5
1919 2 2.4 -7.6 0 0 0 0 1 5
1918 2 2.2 -7.6 0 0 0 0 1 5
1917 2 2 -7.6 0 0 0 0 1 5
1885 2 2.4 -7.8 0 0 0 0 1 5
1884 2 2.2 -7.8 0 0 0 0 1 5
1883 2 2 -7.8 0 0 0 0 1 5
1955 2 2.8 -7.4 0 0 0 0 1.01084 5
1954 2 2.6 -7.4 0 0 0 0 1 5
1921 2 2.8 -7.6 0 0 0 0 1 5
1920 2 2.6 -7.6 0 0 0 0 1 5
1887 2 2.8 -7.8 0 0 0 0 1 5
1886 2 2.6 -7.8 0 0 0 0 1 5
2021 2 2.4 -7 0 0 0 0 0.986251 5
2020 2 2.2 -7 0 0 0 0 0.995021 5
2019 2 2 -7 0 0 0 0 1.00105 5
1987 2 2.4 -7.2 0 0 0 0 0.986022 5
1986 2 2.2 -7.2 0 0 0 0 0.995527 5
1985 2 2 -7.2 0 0 0 0 1.00137 5
2023 2 2.8 -7 0 0 0 0 1.00971 5
2022 2 2.6 -7 0 0 0 0 1.00331 5
1989 2 2.8 -7.2 0 0 0 0 1.01093 5
1988 2 2.6 -7.2 0 0 0 0 1.00907 5
3438 1 2.18478 -6.57252 0.02 0 0.000453822 0.000536212 1 2
3437 1 2.1805 -6.75403 0.02 0 -0.00195522 -0.000353538 1 2
3434 1 1.97755 -6.75088 0.02 0 -0.00341157 -0.0006833 1 2
3436 1 1.9837 -6.5675 0.02 0 1.53139e-05 0.000293216 1 2
3175 1 2.80952 -6.55978 0.02 0 -0.00169156 -0.00035368 1 2
3370 1 1.61066 -1.67585 0.02 0 0 0 1 2
3557 1 1.61308 -3.27042 0.02 0 0 0 1 2
3368 1 1.81704 -1.69819 0.02 0 0 0 1 2
3560 1 1.7955 -3.22248 0.02 0 0 0 1 2
3453 1 2.17196 -6.21492 0.02 0 1.32208e-05 2.0347e-05 1 2
3452 1 2.17648 -6.39636 0.02 0 0.000193717 0.000190902 1 2
3449 1 1.95177 -6.39041 0.02 0 4.91014e-05 8.87872e-05 1 2
3451 1 1.97124 -6.20886 0.02 0 2.16744e-06 4.35871e-06 1 2
3189 1 2.83962 -6.37653 0.02 0 0.00025639 4.21673e-05 1 2
3369 1 1.65685 -1.48823 0.02 0 0 0 1 2
3478 1 1.62424 -5.55952 0.02 0 0 0 1 2
3559 1 1.83845 -3.4404 0.02 0 0 0 1 2
3483 1 1.82986 -5.38934 0.02 0 0 0 1 2
3468 1 2.02019 -5.8254 0.02 0 4.22691e-11 4.42006e-10 1 2
3466 1 1.9879 -6.01992 0.02 0 1.70025e-08 7.45813e-08 1 2
3469 1 2.18612 -6.0226 0.02 0 9.81069e-08 2.81188e-07 1 2
3470 1 2.2107 -5.82321 0.02 0 -1.74086e-10 5.62127e-10 1 2
3462 1 1.60013 -5.94538 0.02 0 8.4782e-13 1.52221e-11 1 2
3447 1 1.58309 -6.14134 0.02 0 8.27609e-11 1.66e-09 1 2
3481 1 1.82751 -5.59028 0.02 0 0 0 1 2
3467 1 1.83302 -5.79335 0.02 0 9.56953e-14 6.21111e-13 1 2
3484 1 2.0205 -5.42502 0.02 0 0 0 1 2
3482 1 2.02955 -5.62473 0.02 0 0 0 1 2
3485 1 2.07102 -5.22984 0.02 0 0 0 1 2
3487 1 2.21969 -5.42685 0.02 0 0 0 1 2
3486 1 2.23105 -5.62458 0.02 0 0 0 1 2
3219 1 2.81721 -5.58567 0.02 0 0 0 1 2
3220 1 2.83726 -5.38583 0.02 0 0 0 1 2
3323 1 1.61031 -0.00163552 0.02 0 0 0 1 2
3382 1 1.65916 -2.06309 0.02 0 0 0 1 2
3465 1 1.79286 -5.99199 0.02 0 2.74502e-10 7.44927e-09 1 2
3433 1 1.78345 -6.73781 0.02 0 -0.00180402 -0.000508644 1 2
3075 1 2.85649 -0.314496 0.02 0 -1.14127e-22 -3.58564e-23 1 2
3502 1 2.09801 -4.82684 0.02 0 0 0 1 2
3500 1 2.08545 -5.03037 0.02 0 0 0 1 2
3498 1 1.86496 -5.1961 0.02 0 0 0 1 2
3499 1 1.89314 -5.0012 0.02 0 0 0 1 2
3501 1 1.90256 -4.79501 0.02 0 0 0 1 2
3383 1 1.64017 -1.86976 0.02 0 0 0 1 2
3350 1 1.66045 -1.30026 0.02 0 0 0 1 2
3397 1 1.74563 -2.44523 0.02 0 0 0 1 2
3237 1 2.87716 -4.99345 0.02 0 -7.88438e-27 -5.30626e-27 1 2
3238 1 2.91037 -4.80394 0.02 0 -6.09762e-27 -6.1348e-27 1 2
3236 1 2.87244 -5.18892 0.02 0 0 0 1 2
3333 1 2.10927 -0.743731 0.02 0 0 0 1 2
3516 1 2.09678 -4.40594 0.02 0 0 0 1 2
3514 1 2.10466 -4.62064 0.02 0 0 0 1 2
3513 1 1.91765 -4.58327 0.02 0 0 0 1 2
3515 1 1.91519 -4.35893 0.02 0 0 0 1 2
3410 1 1.70322 -2.63352 0.02 0 0 0 1 2
3322 1 1.65054 -0.380287 0.02 0 0 0 1 2
3253 1 2.87256 -4.41611 0.02 0 -2.64573e-22 -5.86505e-23 1 2
3252 1 2.8802 -4.61251 0.02 0 -7.92414e-24 -3.84935e-24 1 2
3543 1 1.69145 -3.69232 0.02 0 0 0 1 2
3432 1 1.56548 -6.54222 0.02 0 -1.94029e-07 4.46619e-08 1 2
3531 1 2.25973 -3.93897 0.02 0 0 0 1 2
3530 1 2.26345 -4.16644 0.02 0 0 0 1 2
3529 1 2.08504 -3.93522 0.02 0 0 0 1 2
3528 1 2.08725 -4.18255 0.02 0 0 0 1 2
3527 1 1.91779 -4.12694 0.02 0 0 0 1 2
3267 1 2.82688 -4.21847 0.02 0 -4.9343e-22 6.59583e-23 1 2
3430 1 1.5972 -6.73265 0.02 0 -0.000182036 -7.17033e-05 1 2
3464 1 1.64297 -5.75573 0.02 0 0 0 1 2
3332 1 2.09612 -0.543963 0.02 0 0 0 1 2
3334 1 1.89055 -0.55092 0.02 0 0 0 1 2
3546 1 2.02294 -3.48262 0.02 0 0 0 1 2
3545 1 2.05412 -3.7064 0.02 0 0 0 1 2
3547 1 2.23397 -3.69071 0.02 0 0 0 1 2
3542 1 1.90968 -3.89978 0.02 0 0 0 1 2
3544 1 1.87483 -3.66781 0.02 0 0 0 1 2
3395 1 1.71343 -2.25355 0.02 0 0 0 1 2
3413 1 1.75269 -3.02388 0.02 0 0 0 1 2
3283 1 2.95005 -3.81852 0.02 0 -1.21557e-21 2.49316e-22 1 2
3284 1 2.94651 -3.60455 0.02 0 -1.07331e-22 3.67177e-23 1 2
3563 1 2.21009 -3.47057 0.02 0 0 0 1 2
3565 1 2.16515 -3.05966 0.02 0 0 0 1 2
3564 1 2.17515 -3.263 0.02 0 0 0 1 2
3561 1 1.9845 -3.26538 0.02 0 0 0 1 2
3562 1 1.96321 -3.05797 0.02 0 0 0 1 2
3300 1 2.92833 -3.17752 0.02 0 -2.61684e-28 -1.9156e-28 1 2
3299 1 2.92848 -3.39246 0.02 0 -3.83418e-25 2.20182e-25 1 2
3412 1 1.7213 -2.82677 0.02 0 0 0 1 2
3541 1 1.723 -3.89529 0.02 0 0 0 1 2
3074 1 2.82822 -0.114362 0.02 0 -4.78414e-22 3.98056e-23 1 2
3319 1 1.84838 -0.165193 0.02 0 0 0 1 2
3411 1 1.92273 -2.86136 0.02 0 0 0 1 2
3408 1 2.12238 -2.85882 0.02 0 0 0 1 2
3407 1 2.11655 -2.65703 0.02 0 0 0 1 2
3409 1 1.91096 -2.66426 0.02 0 0 0 1 2
3173 1 2.9098 -2.96044 0.02 0 -9.73729e-24 -3.44547e-24 1 2
3172 1 2.91048 -2.75075 0.02 0 -1.90942e-22 -2.66342e-23 1 2
3526 1 1.73499 -4.1015 0.02 0 0 0 1 2
3525 1 1.73321 -4.31103 0.02 0 0 0 1 2
3320 1 1.85871 -0.36101 0.02 0 0 0 1 2
3318 1 2.05972 -0.340589 0.02 0 0 0 1 2
3316 1 2.25865 -0.348317 0.02 0 0 0 1 2
3392 1 2.14485 -2.45564 0.02 0 0 0 1 2
3396 1 1.94663 -2.47108 0.02 0 0 0 1 2
3394 1 1.92284 -2.27334 0.02 0 0 0 1 2
3393 1 2.11947 -2.25202 0.02 0 0 0 1 2
3156 1 2.90227 -2.34122 0.02 0 -7.36107e-22 -1.95737e-23 1 2
3512 1 1.73491 -4.52488 0.02 0 0 0 1 2
3511 1 1.71543 -4.73594 0.02 0 0 0 1 2
3157 1 2.9137 -2.54458 0.02 0 -6.58405e-22 -5.24192e-23 1 2
3315 1 2.24035 -0.144764 0.02 0 0 0 1 2
3317 1 2.04454 -0.133578 0.02 0 0 0 1 2
3379 1 2.05894 -1.87261 0.02 0 0 0 1 2
3378 1 2.08147 -2.0601 0.02 0 0 0 1 2
3381 1 1.87151 -2.08206 0.02 0 0 0 1 2
3380 1 1.85061 -1.89012 0.02 0 0 0 1 2
3540 1 1.65902 -3.48357 0.02 0 0 0 1 2
3497 1 1.7073 -4.95526 0.02 0 0 0 1 2
3337 1 1.67448 -0.747209 0.02 0 0 0 1 2
3140 1 2.87706 -1.93796 0.02 0 -4.52559e-23 9.61357e-24 1 2
3141 1 2.90094 -2.14214 0.02 0 -3.97537e-22 3.16981e-23 1 2
3336 1 1.67856 -0.566926 0.02 0 0 0 1 2
3090 1 2.89759 -0.511003 0.02 0 -1.09644e-23 -6.85209e-24 1 2
3367 1 2.02955 -1.68718 0.02 0 0 0 1 2
3362 1 2.24672 -1.68786 0.02 0 0 0 1 2
3364 1 2.08272 -1.50576 0.02 0 0 0 1 2
3363 1 2.08459 -1.31904 0.02 0 0 0 1 2
3366 1 1.86559 -1.5099 0.02 0 0 0 1 2
3365 1 1.87321 -1.31831 0.02 0 0 0 1 2
3121 1 2.90375 -1.31101 0.02 0 0 0 1 2
3495 1 1.65872 -5.15353 0.02 0 0 0 1 2
3349 1 1.66676 -1.11332 0.02 0 0 0 1 2
3122 1 2.90029 -1.52107 0.02 0 -5.60955e-27 3.50972e-27 1 2
3123 1 2.88126 -1.73196 0.02 0 -1.0704e-25 4.78307e-26 1 2
3091 1 2.89749 -0.707446 0.02 0 -5.49985e-27 -4.87933e-27 1 2
3348 1 1.65474 -0.926657 0.02 0 0 0 1 2
3344 1 2.08317 -0.937006 0.02 0 0 0 1 2
3345 1 2.07226 -1.12914 0.02 0 0 0 1 2
3347 1 1.87034 -1.12269 0.02 0 0 0 1 2
3346 1 1.87073 -0.927547 0.02 0 0 0 1 2
3107 1 2.89887 -0.907127 0.02 0 0 0 1 2
3108 1 2.9051 -1.10797 0.02 0 -5.91099e-36 2.24555e-35 1 2
3321 1 1.64281 -0.191014 0.02 0 0 0 1 2
3480 1 1.64211 -5.35989 0.02 0 0 0 1 2
3335 1 1.89985 -0.74004 0.02 0 0 0 1 2
3435 1 1.77409 -6.55789 0.02 0 -2.51819e-05 3.02352e-05 1 2
3448 1 1.74549 -6.37765 0.02 0 3.91511e-06 9.23246e-06 1 2
3450 1 1.77231 -6.18839 0.02 0 4.7998e-08 1.44268e-07 1 2
3445 1 1.5594 -6.34124 0.02 0 2.21703e-09 5.86175e-09 1 2
3496 1 1.52757 -4.89185 0.02 0 0 0 1 2
3508 1 1.52196 -4.68828 0.02 0 0 0 1 2
3510 1 1.54393 -4.48888 0.02 0 0 0 1 2
3522 1 1.54515 -4.28241 0.02 0 0 0 1 2
3524 1 1.54525 -4.07203 0.02 0 0 0 1 2
3537 1 1.52502 -3.86495 0.02 0 0 0 1 2
3539 1 1.49887 -3.65783 0.02 0 0 0 1 2
3558 1 1.55895 -3.06132 0.02 0 0 0 1 2
3401 1 1.54026 -2.44696 0.02 0 0 0 1 2
3398 1 1.50622 -2.24572 0.02 0 0 0 1 2
3414 1 1.50079 -2.64639 0.02 0 0 0 1 2
3416 1 1.52644 -2.85338 0.02 0 0 0 1 2
3326 1 2.0091 0.0663726 0.02 0 0 0 1 2
3329 1 2.20976 0.0613907 0.02 0 0 0 1 2
3328 1 2.18311 0.264854 0.02 0 0 0 1 2
3325 1 1.98195 0.263857 0.02 0 0 0 1 2
3540 1 1.57205 6.37171 0.02 0 2.58782e-10 -5.07709e-10 1 2
3369 1 1.62878 1.57633 0.02 0 0 0 1 2
3370 1 1.83317 1.41943 0.02 0 0 0 1 2
3355 1 1.79685 1.05207 0.02 0 0 0 1 2
3345 1 2.16939 0.671284 0.02 0 0 0 1 2
3344 1 2.17724 0.468028 0.02 0 0 0 1 2
3340 1 1.98106 0.464892 0.02 0 0 0 1 2
3343 1 1.97652 0.669975 0.02 0 0 0 1 2
3368 1 1.60863 1.39229 0.02 0 0 0 1 2
3353 1 1.5877 1.01873 0.02 0 0 0 1 2
3528 1 1.7538 5.97788 0.02 0 4.89549e-11 -1.70865e-10 1 2
3526 1 1.74185 5.77466 0.02 0 0 0 1 2
3358 1 1.99118 1.2563 0.02 0 0 0 1 2
3357 1 2.00811 1.07006 0.02 0 0 0 1 2
3361 1 2.21516 1.26123 0.02 0 0 0 1 2
3354 1 1.97665 0.875204 0.02 0 0 0 1 2
3360 1 2.21452 1.06961 0.02 0 0 0 1 2
3359 1 2.1732 0.873929 0.02 0 0 0 1 2
3553 1 1.58433 6.564 0.02 0 -1.21033e-06 -3.42272e-06 1 2
3496 1 1.67944 4.97531 0.02 0 0 0 1 2
3090 1 2.85313 1.27685 0.02 0 -5.84961e-23 1.83846e-23 1 2
3089 1 2.82728 1.07701 0.02 0 -4.39044e-22 -2.17988e-23 1 2
3338 1 1.59298 0.818836 0.02 0 0 0 1 2
3342 1 1.78281 0.855973 0.02 0 0 0 1 2
3341 1 1.78393 0.65202 0.02 0 0 0 1 2
489 2 2.8 9.8 0 0 0 0 1 5
3372 1 2.05252 1.43675 0.02 0 0 0 1 2
3374 1 2.26392 1.44954 0.02 0 0 0 1 2
3373 1 2.07738 1.62056 0.02 0 0 0 1 2
3371 1 1.851 1.6044 0.02 0 0 0 1 2
3512 1 1.74665 5.36629 0.02 0 0 0 1 2
3108 1 2.94617 1.66421 0.02 0 -1.94589e-26 8.66686e-27 1 2
3107 1 2.9065 1.47043 0.02 0 -8.8288e-25 5.3731e-25 1 2
3543 1 1.76481 6.37369 0.02 0 3.14865e-06 -6.4112e-06 1 2
3391 1 1.92539 2.16298 0.02 0 0 0 1 2
3389 1 1.93343 1.97319 0.02 0 0 0 1 2
3393 1 2.15035 1.98498 0.02 0 0 0 1 2
3392 1 2.0836 1.80304 0.02 0 0 0 1 2
3387 1 1.86223 1.78884 0.02 0 0 0 1 2
3337 1 1.59408 0.609715 0.02 0 0 0 1 2
3555 1 1.58086 6.75379 0.02 0 -0.00018421 7.52896e-05 1 2
3558 1 1.77998 6.74569 0.02 0 -0.00182515 0.000493855 1 2
3556 1 1.78278 6.56249 0.02 0 -3.82314e-05 -4.68736e-05 1 2
3406 1 2.0964 2.36881 0.02 0 0 0 1 2
3408 1 2.13377 2.1774 0.02 0 0 0 1 2
3407 1 2.0873 2.56546 0.02 0 0 0 1 2
3404 1 1.8867 2.34981 0.02 0 0 0 1 2
3405 1 1.88443 2.5435 0.02 0 0 0 1 2
3136 1 2.96013 2.40818 0.02 0 -6.35669e-22 2.05272e-23 1 2
3137 1 2.94742 2.58999 0.02 0 -2.02598e-22 3.13986e-23 1 2
3323 1 1.60207 0.397128 0.02 0 0 0 1 2
3339 1 1.78807 0.445205 0.02 0 0 0 1 2
3327 1 1.81074 0.0318079 0.02 0 0 0 1 2
3514 1 1.73734 5.57151 0.02 0 0 0 1 2
3422 1 2.08014 2.7648 0.02 0 0 0 1 2
3421 1 2.0721 2.96445 0.02 0 0 0 1 2
3419 1 1.87796 2.73889 0.02 0 0 0 1 2
3420 1 1.87241 2.93523 0.02 0 0 0 1 2
3498 1 1.7172 4.78818 0.02 0 0 0 1 2
3480 1 1.69157 4.39746 0.02 0 0 0 1 2
3156 1 2.89219 2.76998 0.02 0 -2.01997e-24 -3.26042e-25 1 2
3155 1 2.89111 2.9663 0.02 0 -3.09512e-25 -5.80347e-26 1 2
488 2 2.6 9.8 0 0 0 0 1 5
3435 1 2.04111 3.16637 0.02 0 0 0 1 2
3438 1 2.26284 3.35883 0.02 0 0 0 1 2
3437 1 2.23576 3.16435 0.02 0 0 0 1 2
3436 1 2.05993 3.36715 0.02 0 0 0 1 2
3433 1 1.8546 3.13401 0.02 0 0 0 1 2
3434 1 1.86731 3.35365 0.02 0 0 0 1 2
3170 1 2.84796 3.16089 0.02 0 -7.99889e-23 -1.59839e-23 1 2
3479 1 1.6773 4.59645 0.02 0 0 0 1 2
3465 1 1.66958 4.19379 0.02 0 0 0 1 2
3171 1 2.87188 3.3575 0.02 0 -3.12307e-22 1.37568e-23 1 2
455 2 2.8 9.6 0 0 0 0 1 5
454 2 2.6 9.6 0 0 0 0 1 5
3451 1 2.05072 3.77386 0.02 0 0 0 1 2
3454 1 2.24745 3.76181 0.02 0 0 0 1 2
3453 1 2.25816 3.56006 0.02 0 0 0 1 2
3452 1 2.06832 3.56784 0.02 0 0 0 1 2
3449 1 1.88379 3.58135 0.02 0 0 0 1 2
3450 1 1.86452 3.80883 0.02 0 0 0 1 2
3184 1 2.85443 3.54804 0.02 0 -1.43386e-22 3.94636e-23 1 2
3500 1 1.70802 5.16561 0.02 0 0 0 1 2
3464 1 1.66089 3.99109 0.02 0 0 0 1 2
3185 1 2.90811 3.89884 0.02 0 -1.37607e-27 1.09513e-27 1 2
3186 1 2.92232 3.71725 0.02 0 -1.59016e-23 1.09298e-23 1 2
487 2 2.4 9.8 0 0 0 0 1 5
3469 1 2.07478 4.17437 0.02 0 0 0 1 2
3468 1 2.06486 3.97633 0.02 0 0 0 1 2
3466 1 1.86177 4.01395 0.02 0 0 0 1 2
3467 1 1.87298 4.21067 0.02 0 0 0 1 2
3448 1 1.70043 3.57702 0.02 0 0 0 1 2
3541 1 1.74222 6.17815 0.02 0 2.93233e-08 -8.62315e-08 1 2
3390 1 1.71035 2.13023 0.02 0 0 0 1 2
3202 1 2.91147 4.08785 0.02 0 0 0 1 2
3203 1 2.88197 4.2803 0.02 0 0 0 1 2
486 2 2.2 9.8 0 0 0 0 1 5
451 2 2 9.6 0 0 0 0 1 5
3485 1 2.11676 4.75991 0.02 0 0 0 1 2
3484 1 2.10845 4.56764 0.02 0 0 0 1 2
3483 1 2.08162 4.37403 0.02 0 0 0 1 2
3481 1 1.88695 4.40725 0.02 0 0 0 1 2
3482 1 1.89342 4.59721 0.02 0 0 0 1 2
3220 1 2.87527 4.48606 0.02 0 0 0 1 2
3221 1 2.87782 4.71315 0.02 0 0 0 1 2
3447 1 1.67789 3.78411 0.02 0 0 0 1 2
3432 1 1.6822 3.36904 0.02 0 0 0 1 2
3324 1 1.78401 0.233588 0.02 0 0 0 1 2
485 2 2 9.8 0 0 0 0 1 5
3497 1 1.9175 4.78598 0.02 0 0 0 1 2
3503 1 2.10704 5.14978 0.02 0 0 0 1 2
3502 1 2.12021 4.95586 0.02 0 0 0 1 2
3501 1 1.90361 5.16291 0.02 0 0 0 1 2
3499 1 1.9078 4.97417 0.02 0 0 0 1 2
3237 1 2.86634 4.93785 0.02 0 0 0 1 2
3431 1 1.67462 3.15493 0.02 0 0 0 1 2
3418 1 1.68091 2.91763 0.02 0 0 0 1 2
3238 1 2.86631 5.16469 0.02 0 0 0 1 2
387 2 2.8 9.2 0 0 0 0 1 5
453 2 2.4 9.6 0 0 0 0 1 5
3517 1 2.12757 5.54857 0.02 0 0 0 1 2
3516 1 2.13286 5.34709 0.02 0 0 0 1 2
3513 1 1.94129 5.358 0.02 0 0 0 1 2
3515 1 1.93209 5.56056 0.02 0 0 0 1 2
3256 1 2.87617 5.37435 0.02 0 0 0 1 2
3257 1 2.87951 5.57818 0.02 0 0 0 1 2
3417 1 1.67805 2.70476 0.02 0 0 0 1 2
3403 1 1.67781 2.50674 0.02 0 0 0 1 2
452 2 2.2 9.6 0 0 0 0 1 5
420 2 2.6 9.4 0 0 0 0 1 5
3527 1 1.93326 5.76558 0.02 0 5.88968e-14 -1.98521e-13 1 2
3531 1 2.13543 5.95902 0.02 0 9.91683e-09 -2.76871e-08 1 2
3529 1 1.94511 5.96989 0.02 0 2.20667e-09 -7.34581e-09 1 2
3530 1 2.12246 5.75078 0.02 0 1.89535e-12 -7.05229e-12 1 2
3273 1 2.9078 5.98859 0.02 0 0 0 1 2
3272 1 2.8752 5.78453 0.02 0 0 0 1 2
3388 1 1.71346 1.94466 0.02 0 0 0 1 2
3402 1 1.68047 2.31437 0.02 0 0 0 1 2
421 2 2.8 9.4 0 0 0 0 1 5
386 2 2.6 9.2 0 0 0 0 1 5
3545 1 2.13559 6.16206 0.02 0 4.56756e-06 -9.83624e-06 1 2
3544 1 1.95716 6.36817 0.02 0 3.71974e-05 -6.40905e-05 1 2
3546 1 2.14926 6.3604 0.02 0 0.000119328 -0.000152712 1 2
3542 1 1.93833 6.17031 0.02 0 1.0231e-06 -2.50067e-06 1 2
3287 1 2.92855 6.19047 0.02 0 -1.77384e-24 1.50831e-24 1 2
3356 1 1.76789 1.2373 0.02 0 0 0 1 2
3288 1 2.95252 6.38573 0.02 0 -2.12692e-06 4.8844e-07 1 2
385 2 2.4 9.2 0 0 0 0 1 5
3557 1 1.97783 6.56297 0.02 0 4.44421e-05 -0.000243491 1 2
3560 1 2.17102 6.55615 0.02 0 0.000547244 -0.000620459 1 2
3559 1 1.98566 6.75283 0.02 0 -0.00332568 0.000659129 1 2
3561 1 2.18737 6.74741 0.02 0 -0.00181004 0.000294528 1 2
3322 1 1.58269 0.191836 0.02 0 0 0 1 2
3386 1 1.63825 1.76097 0.02 0 0 0 1 2
383 2 2 9.2 0 0 0 0 1 5
384 2 2.2 9.2 0 0 0 0 1 5
9 2 2 7 0 0 0 0 1.00087 5
10 2 2.2 7 0 0 0 0 0.995012 5
11 2 2.4 7 0 0 0 0 0.986532 5
43 2 2 7.2 0 0 0 0 1.00086 5
44 2 2.2 7.2 0 0 0 0 0.995339 5
45 2 2.4 7.2 0 0 0 0 0.986742 5
13 2 2.8 7 0 0 0 0 1.0109 5
46 2 2.6 7.2 0 0 0 0 1.00964 5
12 2 2.6 7 0 0 0 0 1.00431 5
47 2 2.8 7.2 0 0 0 0 1.01091 5
79 2 2.4 7.4 0 0 0 0 0.987029 5
113 2 2.4 7.6 0 0 0 0 1 5
112 2 2.2 7.6 0 0 0 0 1 5
111 2 2 7.6 0 0 0 0 1 5
77 2 2 7.4 0 0 0 0 0.99914 5
145 2 2 7.8 0 0 0 0 1 5
146 2 2.2 7.8 0 0 0 0 1 5
147 2 2.4 7.8 0 0 0 0 1 5
78 2 2.2 7.4 0 0 0 0 0.999111 5
148 2 2.6 7.8 0 0 0 0 1 5
149 2 2.8 7.8 0 0 0 0 1 5
80 2 2.6 7.4 0 0 0 0 1 5
115 2 2.8 7.6 0 0 0 0 1 5
81 2 2.8 7.4 0 0 0 0 1.01051 5
114 2 2.6 7.6 0 0 0 0 1 5
180 2 2.2 8 0 0 0 0 1 5
179 2 2 8 0 0 0 0 1 5
215 2 2.4 8.2 0 0 0 0 1 5
214 2 2.2 8.2 0 0 0 0 1 5
213 2 2 8.2 0 0 0 0 1 5
181 2 2.4 8 0 0 0 0 1 5
217 2 2.8 8.2 0 0 0 0 1 5
216 2 2.6 8.2 0 0 0 0 1 5
183 2 2.8 8 0 0 0 0 1 5
182 2 2.6 8 0 0 0 0 1 5
248 2 2.2 8.4 0 0 0 0 1 5
249 2 2.4 8.4 0 0 0 0 1 5
281 2 2 8.6 0 0 0 0 1 5
282 2 2.2 8.6 0 0 0 0 1 5
283 2 2.4 8.6 0 0 0 0 1 5
247 2 2 8.4 0 0 0 0 1 5
250 2 2.6 8.4 0 0 0 0 1 5
251 2 2.8 8.4 0 0 0 0 1 5
284 2 2.6 8.6 0 0 0 0 1 5
285 2 2.8 8.6 0 0 0 0 1 5
350 2 2.2 9 0 0 0 0 1 5
349 2 2 9 0 0 0 0 1 5
317 2 2.4 8.8 0 0 0 0 1 5
316 2 2.2 8.8 0 0 0 0 1 5
315 2 2 8.8 0 0 0 0 1 5
351 2 2.4 9 0 0 0 0 1 5
353 2 2.8 9 0 0 0 0 1 5
318 2 2.6 8.8 0 0 0 0 1 5
319 2 2.8 8.8 0 0 0 0 1 5
352 2 2.6 9 0 0 0 0 1 5
417 2 2 9.4 0 0 0 0 1 5
418 2 2.2 9.4 0 0 0 0 1 5
419 2 2.4 9.4 0 0 0 0 1 5
3352 1 1.55065 1.20755 0.02 0 0 0 1 2
3495 1 1.51743 5.19605 0.02 0 0 0 1 2
3511 1 1.53946 5.59251 0.02 0 0 0 1 2
3491 1 1.50938 4.79204 0.02 0 0 0 1 2
3383 1 1.49747 1.93002 0.02 0 0 0 1 2
3538 1 1.54692 6.17538 0.02 0 2.13167e-12 -7.51637e-12 1 2
3525 1 1.55789 5.98164 0.02 0 0 0 1 2
3428 1 1.498 3.13353 0.02 0 0 0 1 2
3430 1 1.4992 3.37425 0.02 0 0 0 1 2
3523 1 1.54613 5.78818 0.02 0 0 0 1 2
3444 1 1.50961 3.59079 0.02 0 0 0 1 2
3476 1 1.49743 4.39142 0.02 0 0 0 1 2
3509 1 1.5515 5.39607 0.02 0 0 0 1 2
1583 2 3.2 -9.6 0 0 0 0 1 5
1582 2 3 -9.6 0 0 0 0 1 5
1549 2 3.2 -9.8 0 0 0 0 1 5
1548 2 3 -9.8 0 0 0 0 1 5
1515 2 3.2 -10 0 0 0 0 1 5
1514 2 3 -10 0 0 0 0 1 5
1584 2 3.4 -9.6 0 0 0 0 1 5
1550 2 3.4 -9.8 0 0 0 0 1 5
1516 2 3.4 -10 0 0 0 0 1 5
1586 2 3.8 -9.6 0 0 0 0 1 5
1585 2 3.6 -9.6 0 0 0 0 1 5
1552 2 3.8 -9.8 0 0 0 0 1 5
1551 2 3.6 -9.8 0 0 0 0 1 5
1518 2 3.8 -10 0 0 0 0 1 5
1517 2 3.6 -10 0 0 0 0 1 5
1588 2 4.2 -9.6 0 0 0 0 1 5
1587 2 4 -9.6 0 0 0 0 1 5
1554 2 4.2 -9.8 0 0 0 0 1 5
1553 2 4 -9.8 0 0 0 0 1 5
1520 2 4.2 -10 0 0 0 0 1 5
1519 2 4 -10 0 0 0 0 1 5
1616 2 3 -9.4 0 0 0 0 1 5
1617 2 3.2 -9.4 0 0 0 0 1 5
1651 2 3.2 -9.2 0 0 0 0 1 5
1650 2 3 -9.2 0 0 0 0 1 5
1652 2 3.4 -9.2 0 0 0 0 1 5
1618 2 3.4 -9.4 0 0 0 0 1 5
1653 2 3.6 -9.2 0 0 0 0 1 5
1654 2 3.8 -9.2 0 0 0 0 1 5
1620 2 3.8 -9.4 0 0 0 0 1 5
1619 2 3.6 -9.4 0 0 0 0 1 5
1622 2 4.2 -9.4 0 0 0 0 1 5
1655 2 4 -9.2 0 0 0 0 1 5
1656 2 4.2 -9.2 0 0 0 0 1 5
1621 2 4 -9.4 0 0 0 0 1 5
1719 2 3.2 -8.8 0 0 0 0 1 5
1718 2 3 -8.8 0 0 0 0 1 5
1685 2 3.2 -9 0 0 0 0 1 5
1684 2 3 -9 0 0 0 0 1 5
1686 2 3.4 -9 0 0 0 0 1 5
1720 2 3.4 -8.8 0 0 0 0 1 5
1687 2 3.6 -9 0 0 0 0 1 5
1688 2 3.8 -9 0 0 0 0 1 5
1721 2 3.6 -8.8 0 0 0 0 1 5
1722 2 3.8 -8.8 0 0 0 0 1 5
1689 2 4 -9 0 0 0 0 1 5
1690 2 4.2 -9 0 0 0 0 1 5
1723 2 4 -8.8 0 0 0 0 1 5
1724 2 4.2 -8.8 0 0 0 0 1 5
1752 2 3 -8.6 0 0 0 0 1 5
1753 2 3.2 -8.6 0 0 0 0 1 5
1786 2 3 -8.4 0 0 0 0 1 5
1787 2 3.2 -8.4 0 0 0 0 1 5
1754 2 3.4 -8.6 0 0 0 0 1 5
1788 2 3.4 -8.4 0 0 0 0 1 5
1755 2 3.6 -8.6 0 0 0 0 1 5
1756 2 3.8 -8.6 0 0 0 0 1 5
1789 2 3.6 -8.4 0 0 0 0 1 5
1790 2 3.8 -8.4 0 0 0 0 1 5
1757 2 4 -8.6 0 0 0 0 1 5
1758 2 4.2 -8.6 0 0 0 0 1 5
1791 2 4 -8.4 0 0 0 0 1 5
1792 2 4.2 -8.4 0 0 0 0 1 5
1820 2 3 -8.2 0 0 0 0 1 5
1821 2 3.2 -8.2 0 0 0 0 1 5
1854 2 3 -8 0 0 0 0 1 5
1855 2 3.2 -8 0 0 0 0 1 5
1822 2 3.4 -8.2 0 0 0 0 1 5
1856 2 3.4 -8 0 0 0 0 1 5
1823 2 3.6 -8.2 0 0 0 0 1 5
1824 2 3.8 -8.2 0 0 0 0 1 5
1857 2 3.6 -8 0 0 0 0 1 5
1858 2 3.8 -8 0 0 0 0 1 5
1825 2 4 -8.2 0 0 0 0 1 5
1826 2 4.2 -8.2 0 0 0 0 1 5
1859 2 4 -8 0 0 0 0 1 5
1860 2 4.2 -8 0 0 0 0 1 5
1888 2 3 -7.8 0 0 0 0 1 5
1889 2 3.2 -7.8 0 0 0 0 1 5
1922 2 3 -7.6 0 0 0 0 1 5
1923 2 3.2 -7.6 0 0 0 0 1 5
1956 2 3 -7.4 0 0 0 0 0.999812 5
1957 2 3.2 -7.4 0 0 0 0 0.998771 5
1890 2 3.4 -7.8 0 0 0 0 1 5
1924 2 3.4 -7.6 0 0 0 0 1 5
1958 2 3.4 -7.4 0 0 0 0 0.999625 5
1891 2 3.6 -7.8 0 0 0 0 1 5