ITEM: TIMESTEP
51000
ITEM: NUMBER OF ATOMS
1422
ITEM: BOX BOUNDS ff ff pp
0.0000000000000000e+00 4.4000000000000004e+00
-1.0000000000000000e+01 1.0000000000000000e+01
-2.0000000000000000e-02 2.0000000000000000e-02
ITEM: ATOMS id type x y vx vy fx fy c_den c_phase
4713 1 0.413714 -6.73915 0.02 0 0 0 1 2
4714 1 0.618921 -6.76661 0.02 0 0 0 1 2
4715 1 0.447509 -6.55076 0.02 0 0 0 1 2
4716 1 0.635187 -6.57535 0.02 0 0 0 1 2
4717 1 0.834605 -6.74572 0.02 0 0 0 1 2
4719 1 0.828116 -6.56407 0.02 0 0 0 1 2
4718 1 1.03309 -6.75043 0.02 0 0 0 1 2
4720 1 1.03566 -6.56481 0.02 0 0 0 1 2
4721 1 1.22654 -6.74604 0.02 0 0 0 1 2
4723 1 1.24728 -6.56288 0.02 0 0 0 1 2
4722 1 1.42585 -6.75916 0.02 0 -5.60705e-07 -5.42899e-07 1 2
4724 1 1.44774 -6.56544 0.02 0 7.48235e-09 8.19563e-08 1 2
4625 1 1.05381 -1.03348 0.02 0 0 0 1 2
4599 1 0.571357 -0.196512 0.02 0 0 0 1 2
4624 1 1.24898 -1.26074 0.02 0 0 0 1 2
4616 1 0.444718 -0.808962 0.02 0 0 0 1 2
4729 1 0.467402 -6.35963 0.02 0 0 0 1 2
4730 1 0.498697 -6.17071 0.02 0 0 0 1 2
4731 1 0.662761 -6.37801 0.02 0 0 0 1 2
4732 1 0.691645 -6.17475 0.02 0 0 0 1 2
4733 1 0.857621 -6.37882 0.02 0 0 0 1 2
4735 1 0.883043 -6.18522 0.02 0 0 0 1 2
4734 1 1.05026 -6.37692 0.02 0 0 0 1 2
4736 1 1.07755 -6.18093 0.02 0 0 0 1 2
4737 1 1.23793 -6.37185 0.02 0 0 0 1 2
4739 1 1.27065 -6.16748 0.02 0 0 0 1 2
4738 1 1.42567 -6.37314 0.02 0 0 0 1 2
4740 1 1.46488 -6.181 0.02 0 8.33894e-12 1.22541e-10 1 2
4623 1 1.24327 -1.04626 0.02 0 0 0 1 2
4645 1 0.91138 -1.6947 0.02 0 0 0 1 2
4613 1 0.843177 -0.832632 0.02 0 0 0 1 2
4598 1 0.759702 -0.204515 0.02 0 0 0 1 2
4745 1 0.489805 -5.9796 0.02 0 0 0 1 2
4746 1 0.47906 -5.78431 0.02 0 0 0 1 2
4747 1 0.689718 -5.97299 0.02 0 0 0 1 2
4748 1 0.676036 -5.77559 0.02 0 0 0 1 2
4749 1 0.886142 -5.98699 0.02 0 0 0 1 2
4750 1 0.871126 -5.78504 0.02 0 0 0 1 2
4751 1 1.0659 -5.78886 0.02 0 0 0 1 2
4752 1 1.08244 -5.9853 0.02 0 0 0 1 2
4753 1 1.27354 -5.96034 0.02 0 0 0 1 2
4755 1 1.26109 -5.75899 0.02 0 0 0 1 2
4754 1 1.46435 -5.98631 0.02 0 0 0 1 2
4756 1 1.45968 -5.78722 0.02 0 0 0 1 2
4612 1 0.62221 -0.613201 0.02 0 0 0 1 2
4596 1 0.948005 -0.202375 0.02 0 0 0 1 2
4611 1 0.816164 -0.628898 0.02 0 0 0 1 2
4595 1 0.972327 -0.411655 0.02 0 0 0 1 2
4761 1 0.425729 -5.58762 0.02 0 0 0 1 2
4762 1 0.402373 -5.39266 0.02 0 0 0 1 2
4763 1 0.609287 -5.39695 0.02 0 0 0 1 2
4764 1 0.631421 -5.58573 0.02 0 0 0 1 2
4765 1 0.83975 -5.58705 0.02 0 0 0 1 2
4767 1 0.819509 -5.39695 0.02 0 0 0 1 2
4766 1 1.04336 -5.59168 0.02 0 0 0 1 2
4768 1 1.03012 -5.39862 0.02 0 0 0 1 2
4769 1 1.24445 -5.5651 0.02 0 0 0 1 2
4771 1 1.24613 -5.38031 0.02 0 0 0 1 2
4770 1 1.44579 -5.58955 0.02 0 0 0 1 2
4772 1 1.47537 -5.40096 0.02 0 0 0 1 2
4632 1 0.480517 -1.20811 0.02 0 0 0 1 2
4622 1 1.42709 -1.05121 0.02 0 0 0 1 2
4643 1 0.901497 -1.46824 0.02 0 0 0 1 2
4597 1 0.780943 -0.418584 0.02 0 0 0 1 2
4777 1 0.605828 -5.20967 0.02 0 0 0 1 2
4778 1 0.448509 -4.83834 0.02 0 0 0 1 2
4779 1 0.628122 -5.02856 0.02 0 0 0 1 2
4780 1 0.671381 -4.85148 0.02 0 0 0 1 2
4781 1 0.825862 -5.21235 0.02 0 0 0 1 2
4782 1 0.856113 -5.03345 0.02 0 0 0 1 2
4783 1 0.893885 -4.85243 0.02 0 0 0 1 2
4784 1 1.05816 -5.21635 0.02 0 0 0 1 2
4785 1 1.07611 -5.03667 0.02 0 0 0 1 2
4786 1 1.11325 -4.85376 0.02 0 0 0 1 2
4787 1 1.30448 -5.21105 0.02 0 0 0 1 2
4788 1 1.28983 -5.02973 0.02 0 0 0 1 2
4789 1 1.32842 -4.84693 0.02 0 0 0 1 2
4790 1 1.50539 -5.03303 0.02 0 0 0 1 2
4642 1 1.09394 -1.6724 0.02 0 0 0 1 2
4621 1 1.43471 -1.28045 0.02 0 0 0 1 2
4606 1 1.38218 -0.598796 0.02 0 0 0 1 2
4794 1 0.440672 -4.65017 0.02 0 0 0 1 2
4795 1 0.444998 -4.462 0.02 0 0 0 1 2
4796 1 0.645118 -4.66649 0.02 0 0 0 1 2
4797 1 0.672741 -4.48385 0.02 0 0 0 1 2
4798 1 0.853681 -4.66888 0.02 0 0 0 1 2
4799 1 0.909331 -4.49172 0.02 0 0 0 1 2
4800 1 1.07376 -4.67305 0.02 0 0 0 1 2
4801 1 1.14606 -4.50233 0.02 0 0 0 1 2
4802 1 1.31631 -4.66598 0.02 0 0 0 1 2
4803 1 1.359 -4.48365 0.02 0 0 0 1 2
4641 1 1.27949 -1.70098 0.02 0 0 0 1 2
4640 1 1.08312 -1.45769 0.02 0 0 0 1 2
4594 1 1.1386 -0.191329 0.02 0 0 0 1 2
4605 1 1.4183 -0.821662 0.02 0 0 0 1 2
4808 1 0.460684 -4.27373 0.02 0 0 0 1 2
4809 1 0.471052 -4.08309 0.02 0 0 0 1 2
4810 1 0.664276 -4.3006 0.02 0 0 0 1 2
4811 1 0.688707 -4.11551 0.02 0 0 0 1 2
4812 1 0.872406 -4.3071 0.02 0 0 0 1 2
4814 1 0.697385 -3.92505 0.02 0 0 0 1 2
4813 1 0.904783 -4.11797 0.02 0 0 0 1 2
4815 1 0.894671 -3.92102 0.02 0 0 0 1 2
4816 1 1.08229 -4.32272 0.02 0 0 0 1 2
4817 1 1.11323 -4.13064 0.02 0 0 0 1 2
4818 1 1.29875 -4.30065 0.02 0 0 0 1 2
4819 1 1.32151 -4.11233 0.02 0 0 0 1 2
4820 1 1.09024 -3.93088 0.02 0 0 0 1 2
4821 1 1.29057 -3.92273 0.02 0 0 0 1 2
4822 1 1.49279 -3.93179 0.02 0 0 0 1 2
4639 1 1.26528 -1.47825 0.02 0 0 0 1 2
4648 1 0.537993 -1.62282 0.02 0 0 0 1 2
4631 1 0.461601 -1.00736 0.02 0 0 0 1 2
4647 1 0.519952 -1.41351 0.02 0 0 0 1 2
4630 1 0.677831 -1.23077 0.02 0 0 0 1 2
4828 1 0.497963 -3.89073 0.02 0 0 0 1 2
4829 1 0.445671 -3.68365 0.02 0 0 0 1 2
4830 1 0.624503 -3.52888 0.02 0 0 0 1 2
4831 1 0.648495 -3.72616 0.02 0 0 0 1 2
4832 1 0.848047 -3.72231 0.02 0 0 0 1 2
4833 1 0.826203 -3.52264 0.02 0 0 0 1 2
4834 1 1.03118 -3.52872 0.02 0 0 0 1 2
4835 1 1.04685 -3.72594 0.02 0 0 0 1 2
4836 1 1.24845 -3.73604 0.02 0 0 0 1 2
4838 1 1.24302 -3.54809 0.02 0 0 0 1 2
4837 1 1.45874 -3.73478 0.02 0 0 0 1 2
4839 1 1.45644 -3.54144 0.02 0 0 0 1 2
4629 1 0.871263 -1.24415 0.02 0 0 0 1 2
4614 1 0.643718 -0.819929 0.02 0 0 0 1 2
4707 1 0.819019 -3.1147 0.02 0 0 0 1 2
4708 1 0.629421 -3.13149 0.02 0 0 0 1 2
4709 1 0.83124 -3.32346 0.02 0 0 0 1 2
4710 1 0.624454 -3.33168 0.02 0 0 0 1 2
4711 1 0.432133 -3.25575 0.02 0 0 0 1 2
4712 1 0.431462 -3.47088 0.02 0 0 0 1 2
4702 1 1.21538 -3.17037 0.02 0 0 0 1 2
4704 1 1.25675 -3.36021 0.02 0 0 0 1 2
4705 1 1.04305 -3.33918 0.02 0 0 0 1 2
4706 1 1.01135 -3.14803 0.02 0 0 0 1 2
4593 1 1.16437 -0.401333 0.02 0 0 0 1 2
4628 1 0.661976 -1.02554 0.02 0 0 0 1 2
4615 1 0.42432 -0.609091 0.02 0 0 0 1 2
4701 1 1.42109 -3.15337 0.02 0 0 0 1 2
4703 1 1.46199 -3.34695 0.02 0 0 0 1 2
4690 1 0.646919 -2.68472 0.02 0 0 0 1 2
4691 1 0.835306 -2.7004 0.02 0 0 0 1 2
4693 1 0.837544 -2.90633 0.02 0 0 0 1 2
4694 1 0.648091 -2.91284 0.02 0 0 0 1 2
4695 1 0.459427 -2.62755 0.02 0 0 0 1 2
4696 1 0.470456 -2.83279 0.02 0 0 0 1 2
4697 1 0.454954 -3.0408 0.02 0 0 0 1 2
4686 1 1.21766 -2.77288 0.02 0 0 0 1 2
4688 1 1.23261 -2.9752 0.02 0 0 0 1 2
4689 1 1.02638 -2.75172 0.02 0 0 0 1 2
4692 1 1.03116 -2.95325 0.02 0 0 0 1 2
4610 1 1.00732 -0.618916 0.02 0 0 0 1 2
4627 1 0.859257 -1.03504 0.02 0 0 0 1 2
4592 1 1.3293 -0.170696 0.02 0 0 0 1 2
4638 1 1.46091 -1.733 0.02 0 0 0 1 2
4685 1 1.40692 -2.756 0.02 0 0 0 1 2
4687 1 1.43525 -2.95815 0.02 0 0 0 1 2
4674 1 0.815701 -2.28702 0.02 0 0 0 1 2
4676 1 0.821736 -2.49265 0.02 0 0 0 1 2
4677 1 0.630009 -2.46414 0.02 0 0 0 1 2
4678 1 0.620976 -2.25416 0.02 0 0 0 1 2
4679 1 0.429722 -2.21217 0.02 0 0 0 1 2
4680 1 0.436914 -2.4215 0.02 0 0 0 1 2
4670 1 1.20598 -2.34155 0.02 0 0 0 1 2
4672 1 1.20449 -2.55829 0.02 0 0 0 1 2
4673 1 1.01213 -2.3438 0.02 0 0 0 1 2
4675 1 1.01379 -2.54709 0.02 0 0 0 1 2
4609 1 1.04128 -0.826347 0.02 0 0 0 1 2
4637 1 1.44529 -1.50825 0.02 0 0 0 1 2
4608 1 1.23343 -0.829479 0.02 0 0 0 1 2
4600 1 0.589643 -0.406124 0.02 0 0 0 1 2
4669 1 1.40313 -2.35355 0.02 0 0 0 1 2
4671 1 1.3945 -2.55237 0.02 0 0 0 1 2
4659 1 0.770908 -1.86398 0.02 0 0 0 1 2
4661 1 0.80078 -2.07835 0.02 0 0 0 1 2
4662 1 0.5794 -1.83614 0.02 0 0 0 1 2
4663 1 0.606187 -2.04609 0.02 0 0 0 1 2
4664 1 0.413016 -2.0009 0.02 0 0 0 1 2
4654 1 1.31121 -1.93371 0.02 0 0 0 1 2
4655 1 1.1347 -1.88565 0.02 0 0 0 1 2
4656 1 1.36 -2.153 0.02 0 0 0 1 2
4657 1 1.17441 -2.11748 0.02 0 0 0 1 2
4658 1 0.956704 -1.9211 0.02 0 0 0 1 2
4660 1 0.990854 -2.13736 0.02 0 0 0 1 2
4591 1 1.35471 -0.383144 0.02 0 0 0 1 2
4626 1 1.05996 -1.24399 0.02 0 0 0 1 2
4607 1 1.1964 -0.615255 0.02 0 0 0 1 2
4646 1 0.727722 -1.64492 0.02 0 0 0 1 2
4653 1 1.49309 -1.95318 0.02 0 0 0 1 2
4644 1 0.71621 -1.43509 0.02 0 0 0 1 2
4587 1 0.550729 0.0152087 0.02 0 0 0 1 2
4588 1 0.585661 0.224259 0.02 0 0 0 1 2
4589 1 0.778878 0.216003 0.02 0 0 0 1 2
4590 1 0.773641 0.424276 0.02 0 0 0 1 2
4591 1 0.739384 0.00901173 0.02 0 0 0 1 2
4592 1 0.927746 0.0146403 0.02 0 0 0 1 2
4593 1 0.965831 0.243059 0.02 0 0 0 1 2
4594 1 1.11703 0.0139935 0.02 0 0 0 1 2
4595 1 1.15611 0.213481 0.02 0 0 0 1 2
4596 1 1.15051 0.417667 0.02 0 0 0 1 2
4597 1 1.34725 0.260252 0.02 0 0 0 1 2
4598 1 1.31441 0.0415298 0.02 0 0 0 1 2
4789 1 1.30178 5.64281 0.02 0 0 0 1 2
4825 1 0.611403 6.76472 0.02 0 0 0 1 2
4601 1 1.51171 0.0351082 0.02 0 0 0 1 2
4818 1 1.37383 6.21412 0.02 0 0 0 1 2
4603 1 0.582773 0.434965 0.02 0 0 0 1 2
4604 1 0.585701 0.645737 0.02 0 0 0 1 2
4605 1 0.593336 0.853529 0.02 0 0 0 1 2
4606 1 0.778117 0.634414 0.02 0 0 0 1 2
4607 1 0.784614 0.848641 0.02 0 0 0 1 2
4608 1 0.962063 0.465903 0.02 0 0 0 1 2
4609 1 0.966126 0.683296 0.02 0 0 0 1 2
4610 1 1.33652 0.478881 0.02 0 0 0 1 2
4611 1 1.14772 0.632968 0.02 0 0 0 1 2
4612 1 1.32908 0.689725 0.02 0 0 0 1 2
4613 1 1.16023 0.868113 0.02 0 0 0 1 2
4788 1 1.29301 5.44626 0.02 0 0 0 1 2
4817 1 1.16067 6.19252 0.02 0 0 0 1 2
4787 1 1.08887 5.46271 0.02 0 0 0 1 2
4816 1 0.971122 6.37171 0.02 0 0 0 1 2
4814 1 0.944564 6.1851 0.02 0 0 0 1 2
4619 1 0.579383 1.05801 0.02 0 0 0 1 2
4620 1 0.581214 1.26198 0.02 0 0 0 1 2
4621 1 0.771394 1.06422 0.02 0 0 0 1 2
4622 1 0.770022 1.27921 0.02 0 0 0 1 2
4623 1 0.973067 0.88937 0.02 0 0 0 1 2
4624 1 0.961396 1.09195 0.02 0 0 0 1 2
4625 1 0.956892 1.29997 0.02 0 0 0 1 2
4626 1 1.15117 1.09204 0.02 0 0 0 1 2
4627 1 1.34009 1.08696 0.02 0 0 0 1 2
4628 1 1.33936 1.29024 0.02 0 0 0 1 2
4629 1 1.35124 0.888006 0.02 0 0 0 1 2
4630 1 1.14726 1.30394 0.02 0 0 0 1 2
4786 1 1.28082 5.24663 0.02 0 0 0 1 2
4785 1 1.08265 5.27131 0.02 0 0 0 1 2
4784 1 0.86523 5.62895 0.02 0 0 0 1 2
4815 1 0.763231 6.37909 0.02 0 0 0 1 2
4783 1 0.65482 5.63138 0.02 0 0 0 1 2
4636 1 0.533559 1.46151 0.02 0 0 0 1 2
4637 1 0.539861 1.66141 0.02 0 0 0 1 2
4638 1 0.727162 1.48506 0.02 0 0 0 1 2
4639 1 0.752244 1.68567 0.02 0 0 0 1 2
4640 1 0.922116 1.50668 0.02 0 0 0 1 2
4641 1 0.965412 1.70509 0.02 0 0 0 1 2
4642 1 1.1208 1.50485 0.02 0 0 0 1 2
4643 1 1.17851 1.69224 0.02 0 0 0 1 2
4644 1 1.32653 1.49143 0.02 0 0 0 1 2
4645 1 1.39146 1.67867 0.02 0 0 0 1 2
4782 1 0.885025 5.44311 0.02 0 0 0 1 2
4800 1 0.893766 5.81132 0.02 0 0 0 1 2
4826 1 0.558159 6.58449 0.02 0 0 0 1 2
4801 1 0.718553 6.01246 0.02 0 0 0 1 2
4650 1 0.57843 1.85478 0.02 0 0 0 1 2
4651 1 0.556231 2.04403 0.02 0 0 0 1 2
4652 1 0.787968 1.8791 0.02 0 0 0 1 2
4653 1 0.776183 2.07045 0.02 0 0 0 1 2
4654 1 0.998236 1.89882 0.02 0 0 0 1 2
4655 1 0.989807 2.09218 0.02 0 0 0 1 2
4656 1 1.2064 1.8822 0.02 0 0 0 1 2
4657 1 1.20079 2.07554 0.02 0 0 0 1 2
4658 1 1.41513 1.86944 0.02 0 0 0 1 2
4659 1 1.41168 2.06194 0.02 0 0 0 1 2
4799 1 0.6839 5.82225 0.02 0 0 0 1 2
4798 1 0.519918 6.03142 0.02 0 0 0 1 2
4797 1 0.483669 5.83395 0.02 0 0 0 1 2
4802 1 0.919015 5.99766 0.02 0 0 0 1 2
4664 1 0.421991 2.39441 0.02 0 0 0 1 2
4665 1 0.435484 2.5827 0.02 0 0 0 1 2
4666 1 0.608467 2.22999 0.02 0 0 0 1 2
4667 1 0.82837 2.26125 0.02 0 0 0 1 2
4668 1 0.644008 2.41719 0.02 0 0 0 1 2
4669 1 0.860437 2.45268 0.02 0 0 0 1 2
4670 1 0.640889 2.60767 0.02 0 0 0 1 2
4671 1 1.04547 2.28011 0.02 0 0 0 1 2
4672 1 1.25346 2.2647 0.02 0 0 0 1 2
4673 1 1.06962 2.4728 0.02 0 0 0 1 2
4674 1 1.27206 2.46162 0.02 0 0 0 1 2
4675 1 1.46033 2.25117 0.02 0 0 0 1 2
4676 1 1.47126 2.44706 0.02 0 0 0 1 2
4813 1 0.733533 6.20041 0.02 0 0 0 1 2
4812 1 0.544189 6.4045 0.02 0 0 0 1 2
4679 1 0.422365 2.77537 0.02 0 0 0 1 2
4680 1 0.406275 2.96941 0.02 0 0 0 1 2
4681 1 0.605837 2.99882 0.02 0 0 0 1 2
4682 1 0.845522 2.64459 0.02 0 0 0 1 2
4683 1 0.629302 2.80212 0.02 0 0 0 1 2
4684 1 0.831926 2.83916 0.02 0 0 0 1 2
4685 1 0.803617 3.03534 0.02 0 0 0 1 2
4686 1 1.05563 2.6637 0.02 0 0 0 1 2
4687 1 1.0352 2.85568 0.02 0 0 0 1 2
4688 1 1.26862 2.65746 0.02 0 0 0 1 2
4689 1 1.23953 2.85041 0.02 0 0 0 1 2
4692 1 1.22056 3.04037 0.02 0 0 0 1 2
4690 1 1.44311 2.83725 0.02 0 0 0 1 2
4691 1 1.43615 3.03093 0.02 0 0 0 1 2
4693 1 1.47922 2.64228 0.02 0 0 0 1 2
4811 1 0.525774 6.22219 0.02 0 0 0 1 2
4803 1 1.1067 5.82959 0.02 0 0 0 1 2
4804 1 1.31474 5.8373 0.02 0 0 0 1 2
4834 1 1.38782 6.59218 0.02 0 0 0 1 2
4831 1 1.40621 6.77622 0.02 0 -2.96789e-07 3.10415e-07 1 2
4699 1 0.403589 3.16915 0.02 0 0 0 1 2
4700 1 0.412647 3.37484 0.02 0 0 0 1 2
4701 1 0.602428 3.20054 0.02 0 0 0 1 2
4702 1 0.606585 3.40503 0.02 0 0 0 1 2
4703 1 0.802502 3.23538 0.02 0 0 0 1 2
4704 1 0.79963 3.43993 0.02 0 0 0 1 2
4705 1 1.00759 3.04792 0.02 0 0 0 1 2
4706 1 1.00614 3.24229 0.02 0 0 0 1 2
4707 1 0.993738 3.44129 0.02 0 0 0 1 2
4708 1 1.21605 3.22709 0.02 0 0 0 1 2
4709 1 1.19474 3.41402 0.02 0 0 0 1 2
4710 1 1.42567 3.22198 0.02 0 0 0 1 2
4711 1 1.41161 3.41416 0.02 0 0 0 1 2
4793 1 1.50631 5.63775 0.02 0 0 0 1 2
4792 1 1.49262 5.43734 0.02 0 0 0 1 2
4833 1 1.17915 6.5618 0.02 0 0 0 1 2
4832 1 1.1895 6.7412 0.02 0 0 0 1 2
4716 1 0.45012 3.58294 0.02 0 0 0 1 2
4717 1 0.483388 3.789 0.02 0 0 0 1 2
4718 1 0.651802 3.61296 0.02 0 0 0 1 2
4719 1 0.856309 3.64472 0.02 0 0 0 1 2
4720 1 0.68112 3.8167 0.02 0 0 0 1 2
4721 1 0.880241 3.84819 0.02 0 0 0 1 2
4722 1 1.06031 3.63092 0.02 0 0 0 1 2
4723 1 1.26261 3.59356 0.02 0 0 0 1 2
4724 1 1.08144 3.82453 0.02 0 0 0 1 2
4725 1 1.28851 3.78237 0.02 0 0 0 1 2
4726 1 1.46761 3.605 0.02 0 0 0 1 2
4727 1 1.50408 3.79564 0.02 0 0 0 1 2
4819 1 1.17031 6.37702 0.02 0 0 0 1 2
4781 1 0.682596 5.4397 0.02 0 0 0 1 2
4830 1 0.972786 6.55988 0.02 0 0 0 1 2
4731 1 0.510361 3.99507 0.02 0 0 0 1 2
4732 1 0.519636 4.19723 0.02 0 0 0 1 2
4733 1 0.706016 4.02299 0.02 0 0 0 1 2
4735 1 0.722327 4.22758 0.02 0 0 0 1 2
4734 1 0.903765 4.0519 0.02 0 0 0 1 2
4736 1 0.920968 4.25642 0.02 0 0 0 1 2
4737 1 1.10249 4.01862 0.02 0 0 0 1 2
4738 1 1.30668 3.97069 0.02 0 0 0 1 2
4739 1 1.11437 4.21997 0.02 0 0 0 1 2
4740 1 1.30663 4.16658 0.02 0 0 0 1 2
4741 1 1.50507 4.17791 0.02 0 0 0 1 2
4780 1 0.66565 5.2438 0.02 0 0 0 1 2
4820 1 1.36425 6.40804 0.02 0 0 0 1 2
4779 1 0.874547 5.25264 0.02 0 0 0 1 2
4745 1 0.557946 4.39304 0.02 0 0 0 1 2
4746 1 0.545584 4.58718 0.02 0 0 0 1 2
4747 1 0.518253 4.78246 0.02 0 0 0 1 2
4748 1 0.754319 4.43607 0.02 0 0 0 1 2
4750 1 0.737737 4.64357 0.02 0 0 0 1 2
4749 1 0.944731 4.46491 0.02 0 0 0 1 2
4751 1 0.933155 4.66681 0.02 0 0 0 1 2
4752 1 1.12865 4.43165 0.02 0 0 0 1 2
4753 1 1.30768 4.37551 0.02 0 0 0 1 2
4754 1 1.12606 4.65198 0.02 0 0 0 1 2
4755 1 1.30617 4.59842 0.02 0 0 0 1 2
4756 1 1.46458 4.78249 0.02 0 0 0 1 2
4757 1 1.49811 4.37631 0.02 0 0 0 1 2
4758 1 1.49542 4.57729 0.02 0 0 0 1 2
4806 1 1.34803 6.02674 0.02 0 0 0 1 2
4805 1 1.12985 6.01262 0.02 0 0 0 1 2
4761 1 0.488501 4.9823 0.02 0 0 0 1 2
4762 1 0.470568 5.19135 0.02 0 0 0 1 2
4763 1 0.707945 4.84671 0.02 0 0 0 1 2
4765 1 0.67544 5.04711 0.02 0 0 0 1 2
4766 1 0.872637 5.05907 0.02 0 0 0 1 2
4764 1 0.90405 4.86415 0.02 0 0 0 1 2
4767 1 1.09757 4.86501 0.02 0 0 0 1 2
4768 1 1.28516 4.83342 0.02 0 0 0 1 2
4769 1 1.07036 5.07323 0.02 0 0 0 1 2
4770 1 1.26605 5.04537 0.02 0 0 0 1 2
4771 1 1.45571 5.00509 0.02 0 0 0 1 2
4791 1 1.47046 5.2257 0.02 0 0 0 1 2
4790 1 1.08836 5.64708 0.02 0 0 0 1 2
4827 1 0.99621 6.75439 0.02 0 0 0 1 2
4829 1 0.761171 6.5555 0.02 0 0 0 1 2
4828 1 0.807084 6.72909 0.02 0 0 0 1 2
4777 1 0.489395 5.40931 0.02 0 0 0 1 2
4778 1 0.459629 5.62531 0.02 0 0 0 1 2
1509 2 2 -10 0 0 0 0 1 5
1510 2 2.2 -10 0 0 0 0 1 5
1511 2 2.4 -10 0 0 0 0 1 5
1543 2 2 -9.8 0 0 0 0 1 5
1544 2 2.2 -9.8 0 0 0 0 1 5
1545 2 2.4 -9.8 0 0 0 0 1 5
1577 2 2 -9.6 0 0 0 0 1 5
1578 2 2.2 -9.6 0 0 0 0 1 5
1579 2 2.4 -9.6 0 0 0 0 1 5
1512 2 2.6 -10 0 0 0 0 1 5
1513 2 2.8 -10 0 0 0 0 1 5
1546 2 2.6 -9.8 0 0 0 0 1 5
1547 2 2.8 -9.8 0 0 0 0 1 5
1580 2 2.6 -9.6 0 0 0 0 1 5
1581 2 2.8 -9.6 0 0 0 0 1 5
1645 2 2 -9.2 0 0 0 0 1 5
1646 2 2.2 -9.2 0 0 0 0 1 5
1647 2 2.4 -9.2 0 0 0 0 1 5
1613 2 2.4 -9.4 0 0 0 0 1 5
1612 2 2.2 -9.4 0 0 0 0 1 5
1611 2 2 -9.4 0 0 0 0 1 5
1648 2 2.6 -9.2 0 0 0 0 1 5
1649 2 2.8 -9.2 0 0 0 0 1 5
1615 2 2.8 -9.4 0 0 0 0 1 5
1614 2 2.6 -9.4 0 0 0 0 1 5
1679 2 2 -9 0 0 0 0 1 5
1680 2 2.2 -9 0 0 0 0 1 5
1681 2 2.4 -9 0 0 0 0 1 5
1713 2 2 -8.8 0 0 0 0 1 5
1714 2 2.2 -8.8 0 0 0 0 1 5
1715 2 2.4 -8.8 0 0 0 0 1 5
1682 2 2.6 -9 0 0 0 0 1 5
1683 2 2.8 -9 0 0 0 0 1 5
1716 2 2.6 -8.8 0 0 0 0 1 5
1717 2 2.8 -8.8 0 0 0 0 1 5
1783 2 2.4 -8.4 0 0 0 0 1 5
1782 2 2.2 -8.4 0 0 0 0 1 5
1781 2 2 -8.4 0 0 0 0 1 5
1747 2 2 -8.6 0 0 0 0 1 5
1748 2 2.2 -8.6 0 0 0 0 1 5
1749 2 2.4 -8.6 0 0 0 0 1 5
1785 2 2.8 -8.4 0 0 0 0 1 5
1784 2 2.6 -8.4 0 0 0 0 1 5
1750 2 2.6 -8.6 0 0 0 0 1 5
1751 2 2.8 -8.6 0 0 0 0 1 5
1851 2 2.4 -8 0 0 0 0 1 5
1850 2 2.2 -8 0 0 0 0 1 5
1849 2 2 -8 0 0 0 0 1 5
1817 2 2.4 -8.2 0 0 0 0 1 5
1816 2 2.2 -8.2 0 0 0 0 1 5
1815 2 2 -8.2 0 0 0 0 1 5
1853 2 2.8 -8 0 0 0 0 1 5
1852 2 2.6 -8 0 0 0 0 1 5
1819 2 2.8 -8.2 0 0 0 0 1 5
1818 2 2.6 -8.2 0 0 0 0 1 5
1953 2 2.4 -7.4 0 0 0 0 1.00064 5
1952 2 2.2 -7.4 0 0 0 0 1.01184 5
1951 2 2 -7.4 0 0 0 0 0.992887 5
1919 2 2.4 -7.6 0 0 0 0 1 5
1918 2 2.2 -7.6 0 0 0 0 1 5
1917 2 2 -7.6 0 0 0 0 1 5
1885 2 2.4 -7.8 0 0 0 0 1 5
1884 2 2.2 -7.8 0 0 0 0 1 5
1883 2 2 -7.8 0 0 0 0 1 5
1955 2 2.8 -7.4 0 0 0 0 0.999579 5
1954 2 2.6 -7.4 0 0 0 0 0.996876 5
1921 2 2.8 -7.6 0 0 0 0 1 5
1920 2 2.6 -7.6 0 0 0 0 1 5
1887 2 2.8 -7.8 0 0 0 0 1 5
1886 2 2.6 -7.8 0 0 0 0 1 5
2021 2 2.4 -7 0 0 0 0 1.00368 5
2020 2 2.2 -7 0 0 0 0 1.00917 5
2019 2 2 -7 0 0 0 0 0.995227 5
1987 2 2.4 -7.2 0 0 0 0 1.00258 5
1986 2 2.2 -7.2 0 0 0 0 1.01086 5
1985 2 2 -7.2 0 0 0 0 0.993489 5
2023 2 2.8 -7 0 0 0 0 1.0003 5
2022 2 2.6 -7 0 0 0 0 1.00027 5
1989 2 2.8 -7.2 0 0 0 0 1.00062 5
1988 2 2.6 -7.2 0 0 0 0 0.999531 5
4442 1 2.60221 -6.72835 0.02 0 -0.0017688 -0.00023651 1 2
4444 1 2.61682 -6.54477 0.02 0 0.000325039 0.000417541 1 2
4447 1 2.42433 -6.54926 0.02 0 -0.000356739 2.52747e-05 1 2
4446 1 2.41144 -6.75162 0.02 0 -0.00317042 -0.00016493 1 2
4445 1 2.81689 -6.5542 0.02 0 0.000208346 0.000492737 1 2
4443 1 2.79112 -6.74203 0.02 0 -0.00262217 -0.000482502 1 2
4635 1 1.61886 -1.45199 0.02 0 0 0 1 2
4636 1 1.63452 -1.67593 0.02 0 0 0 1 2
4634 1 1.80417 -1.61635 0.02 0 0 0 1 2
4649 1 1.83882 -1.84906 0.02 0 0 0 1 2
4462 1 2.42798 -6.16727 0.02 0 4.75438e-07 6.34372e-07 1 2
4458 1 2.63468 -6.35816 0.02 0 0.000105957 0.000132617 1 2
4460 1 2.62668 -6.16827 0.02 0 6.61046e-06 1.12953e-05 1 2
4463 1 2.42579 -6.35803 0.02 0 1.09232e-05 1.12815e-05 1 2
4459 1 2.83776 -6.36705 0.02 0 8.93529e-05 0.000143746 1 2
4461 1 2.83092 -6.1805 0.02 0 5.59442e-06 1.0799e-05 1 2
4668 1 1.58923 -2.58323 0.02 0 0 0 1 2
4666 1 1.5973 -2.37813 0.02 0 0 0 1 2
4683 1 1.83744 -2.9818 0.02 0 0 0 1 2
4698 1 1.82811 -3.18414 0.02 0 0 0 1 2
4476 1 2.68089 -5.79188 0.02 0 1.02547e-11 4.37443e-11 1 2
4474 1 2.62866 -5.97613 0.02 0 2.47943e-08 6.76915e-08 1 2
4478 1 2.42715 -5.9733 0.02 0 1.91611e-09 4.11109e-09 1 2
4477 1 2.46848 -5.78448 0.02 0 1.37284e-11 3.10775e-11 1 2
4475 1 2.83268 -5.99115 0.02 0 3.05661e-08 1.00234e-07 1 2
4684 1 1.64019 -2.98033 0.02 0 0 0 1 2
4650 1 1.66427 -1.89427 0.02 0 0 0 1 2
4479 1 2.88848 -5.80453 0.02 0 1.64794e-11 9.58879e-11 1 2
4806 1 1.8004 -4.67763 0.02 0 0 0 1 2
4760 1 1.85855 -5.75702 0.02 0 1.02208e-13 2.75663e-13 1 2
4489 1 2.70434 -5.6044 0.02 0 0 0 1 2
4490 1 2.73287 -5.41529 0.02 0 0 0 1 2
4493 1 2.49526 -5.5962 0.02 0 0 0 1 2
4492 1 2.5276 -5.4058 0.02 0 0 0 1 2
4491 1 2.74207 -5.22133 0.02 0 -5.24212e-26 -4.7781e-26 1 2
4494 1 2.90926 -5.60748 0.02 0 -8.67345e-25 -2.14349e-24 1 2
4495 1 2.93322 -5.40396 0.02 0 -6.97473e-19 1.92899e-18 1 2
4700 1 1.66379 -3.38146 0.02 0 0 0 1 2
4618 1 1.78655 -1.14477 0.02 0 0 0 1 2
4617 1 1.78385 -0.925982 0.02 0 0 0 1 2
4633 1 1.78288 -1.37464 0.02 0 0 0 1 2
4338 1 2.98063 -0.0512313 0.02 0 -9.15915e-22 3.28688e-22 1 2
4508 1 2.6068 -4.81527 0.02 0 -2.03189e-24 -2.81241e-25 1 2
4510 1 2.41048 -4.80548 0.02 0 0 0 1 2
4505 1 2.53929 -5.2108 0.02 0 0 0 1 2
4506 1 2.58184 -5.01593 0.02 0 -6.14664e-26 -1.86974e-26 1 2
4507 1 2.77863 -5.02224 0.02 0 -1.49459e-23 -8.44484e-24 1 2
4509 1 2.80023 -4.81151 0.02 0 -9.27044e-23 -8.81264e-24 1 2
4512 1 2.96745 -4.97468 0.02 0 -7.90209e-23 -7.39671e-23 1 2
4511 1 2.94085 -5.19341 0.02 0 -1.04723e-21 3.84945e-22 1 2
4651 1 1.72744 -2.1014 0.02 0 0 0 1 2
4682 1 1.60059 -2.78375 0.02 0 0 0 1 2
4524 1 2.64006 -4.61129 0.02 0 -2.13404e-24 6.01122e-25 1 2
4522 1 2.65983 -4.40831 0.02 0 -3.71895e-26 2.47704e-26 1 2
4525 1 2.44344 -4.60871 0.02 0 0 0 1 2
4523 1 2.44674 -4.42187 0.02 0 0 0 1 2
4526 1 2.83327 -4.59713 0.02 0 -5.76094e-23 3.05055e-23 1 2
4699 1 1.62628 -3.17868 0.02 0 0 0 1 2
4619 1 1.60522 -0.999003 0.02 0 0 0 1 2
4527 1 2.86091 -4.38967 0.02 0 -3.03252e-24 3.71406e-24 1 2
4758 1 1.85282 -5.95431 0.02 0 -1.26684e-09 3.62925e-09 1 2
4667 1 1.77526 -2.54253 0.02 0 0 0 1 2
4540 1 2.61681 -4.01236 0.02 0 -1.50208e-33 -1.13763e-33 1 2
4539 1 2.63586 -4.20972 0.02 0 0 0 1 2
4542 1 2.43206 -4.23899 0.02 0 0 0 1 2
4543 1 2.41095 -4.05469 0.02 0 0 0 1 2
4541 1 2.82373 -3.99137 0.02 0 -5.02009e-26 -7.11192e-26 1 2
4544 1 2.83495 -4.19118 0.02 0 -4.61477e-29 8.01939e-29 1 2
4841 1 1.66565 -3.57722 0.02 0 0 0 1 2
4620 1 1.61124 -1.2208 0.02 0 0 0 1 2
4604 1 1.60154 -0.782001 0.02 0 0 0 1 2
4744 1 1.85311 -6.15293 0.02 0 -6.64778e-07 9.26206e-07 1 2
4742 1 1.815 -6.35117 0.02 0 3.52851e-06 6.20831e-06 1 2
4728 1 1.83569 -6.55023 0.02 0 -0.000174338 7.5255e-05 1 2
4560 1 2.71638 -3.61938 0.02 0 -3.38166e-24 -5.62542e-25 1 2
4557 1 2.53324 -3.83444 0.02 0 -1.77896e-28 -3.42384e-29 1 2
4558 1 2.51061 -3.64157 0.02 0 -1.21719e-26 -9.2389e-28 1 2
4559 1 2.74731 -3.80935 0.02 0 -9.07219e-25 -5.66195e-25 1 2
4561 1 2.95199 -3.7622 0.02 0 -6.88116e-24 -7.6302e-24 1 2
4562 1 2.92717 -3.57442 0.02 0 -1.3879e-22 -6.6456e-23 1 2
4665 1 1.77016 -2.30904 0.02 0 0 0 1 2
4601 1 1.75878 -0.514055 0.02 0 0 0 1 2
4575 1 2.41948 -3.0552 0.02 0 0 0 1 2
4574 1 2.67335 -3.24471 0.02 0 -4.928e-25 1.38713e-25 1 2
4573 1 2.73242 -3.42684 0.02 0 -5.32964e-24 4.41813e-25 1 2
4576 1 2.62038 -3.05525 0.02 0 -7.7384e-27 4.1637e-27 1 2
4572 1 2.51735 -3.4454 0.02 0 -1.56904e-26 -1.03986e-28 1 2
4571 1 2.46245 -3.25437 0.02 0 -2.73103e-31 -6.88173e-33 1 2
4577 1 2.93889 -3.38246 0.02 0 -7.70964e-22 -6.47678e-23 1 2
4578 1 2.88955 -3.19995 0.02 0 -2.33272e-22 7.07152e-23 1 2
4840 1 1.67163 -3.76644 0.02 0 0 0 1 2
4602 1 1.78676 -0.71437 0.02 0 0 0 1 2
4339 1 2.80947 -0.232612 0.02 0 -4.53641e-23 4.84796e-24 1 2
4441 1 2.58582 -2.85229 0.02 0 0 0 1 2
4438 1 2.70653 -2.62038 0.02 0 0 0 1 2
4439 1 2.52125 -2.64892 0.02 0 0 0 1 2
4437 1 2.8193 -3.02181 0.02 0 -3.43296e-24 1.53421e-24 1 2
4440 1 2.77544 -2.82524 0.02 0 -2.31195e-26 1.3078e-26 1 2
4773 1 1.65138 -5.5831 0.02 0 0 0 1 2
4434 1 2.9648 -2.79318 0.02 0 -2.11069e-24 2.1673e-24 1 2
4681 1 1.78943 -2.76838 0.02 0 0 0 1 2
4726 1 1.82387 -6.74294 0.02 0 -0.00162286 -0.000291244 1 2
4424 1 2.43726 -2.20819 0.02 0 0 0 1 2
4426 1 2.4789 -2.4387 0.02 0 0 0 1 2
4425 1 2.65444 -2.39988 0.02 0 -2.1626e-35 -1.30358e-35 1 2
4423 1 2.61616 -2.18323 0.02 0 -2.76031e-30 -1.00746e-30 1 2
4421 1 2.84151 -2.39934 0.02 0 -4.1057e-29 -4.19955e-29 1 2
4422 1 2.80522 -2.19833 0.02 0 -6.73552e-26 -4.21015e-26 1 2
4741 1 1.61943 -6.36836 0.02 0 1.02678e-08 1.92092e-08 1 2
4727 1 1.64608 -6.55608 0.02 0 -2.42017e-06 2.12698e-05 1 2
4420 1 2.89574 -2.59703 0.02 0 -3.88652e-31 5.06033e-31 1 2
4341 1 2.61183 -0.183256 0.02 0 -1.09796e-25 1.26787e-26 1 2
4827 1 1.69459 -3.95743 0.02 0 0 0 1 2
4343 1 2.58532 -0.380407 0.02 0 -9.67744e-26 -8.12595e-27 1 2
4340 1 2.78271 -0.0243134 0.02 0 -4.25749e-24 1.24821e-24 1 2
4405 1 2.6162 -1.97392 0.02 0 -1.15047e-26 -2.07488e-27 1 2
4404 1 2.56372 -1.77757 0.02 0 -2.87223e-27 2.93453e-28 1 2
4406 1 2.42701 -1.98574 0.02 0 0 0 1 2
4403 1 2.77763 -1.80384 0.02 0 -2.52514e-24 8.08991e-26 1 2
4402 1 2.81402 -1.99908 0.02 0 -3.66156e-24 -1.10679e-24 1 2
4725 1 1.62203 -6.73676 0.02 0 -0.000139474 -7.47578e-05 1 2
4774 1 1.70177 -5.40162 0.02 0 0 0 1 2
4354 1 2.97103 -0.869466 0.02 0 -1.0223e-21 -5.19582e-23 1 2
4826 1 1.74864 -4.13913 0.02 0 0 0 1 2
4389 1 2.74225 -1.61772 0.02 0 -2.08261e-25 7.85561e-26 1 2
4390 1 2.50883 -1.37585 0.02 0 0 0 1 2
4388 1 2.70216 -1.42554 0.02 0 -3.31336e-27 -1.17236e-27 1 2
4391 1 2.52917 -1.58117 0.02 0 0 0 1 2
4342 1 2.40152 -0.140001 0.02 0 0 0 1 2
4825 1 1.76061 -4.31783 0.02 0 0 0 1 2
4792 1 1.72273 -5.0319 0.02 0 0 0 1 2
4386 1 2.90216 -1.44746 0.02 0 -2.89179e-23 8.21855e-24 1 2
4387 1 2.97003 -1.62905 0.02 0 -2.07767e-22 6.55028e-23 1 2
4375 1 2.72629 -1.23072 0.02 0 -1.67811e-25 -5.53731e-26 1 2
4377 1 2.53157 -1.17546 0.02 0 -2.54664e-28 -6.17033e-30 1 2
4376 1 2.55539 -0.977961 0.02 0 -3.11779e-27 3.62812e-28 1 2
4374 1 2.75477 -1.03692 0.02 0 -1.50587e-24 6.58976e-26 1 2
4372 1 2.96183 -1.06354 0.02 0 -1.13041e-21 2.11454e-23 1 2
4807 1 1.76958 -4.50029 0.02 0 0 0 1 2
4793 1 1.76845 -4.85434 0.02 0 0 0 1 2
4776 1 1.73428 -5.21781 0.02 0 0 0 1 2
4373 1 2.92926 -1.25432 0.02 0 -2.42806e-22 -8.947e-23 1 2
4358 1 2.57876 -0.578615 0.02 0 -6.54615e-26 -2.67543e-27 1 2
4359 1 2.57542 -0.780303 0.02 0 -9.77543e-27 -3.82714e-28 1 2
4356 1 2.78078 -0.638546 0.02 0 -1.39608e-23 -2.06654e-24 1 2
4355 1 2.77966 -0.43497 0.02 0 -2.54677e-23 -2.30355e-25 1 2
4357 1 2.7709 -0.839322 0.02 0 -1.88002e-24 -4.00292e-25 1 2
4759 1 1.65888 -5.77485 0.02 0 0 0 1 2
4352 1 2.9753 -0.468318 0.02 0 -3.55284e-21 -5.12248e-23 1 2
4590 1 1.72764 -0.130901 0.02 0 0 0 1 2
4587 1 1.74713 -0.318944 0.02 0 0 0 1 2
4743 1 1.66005 -6.17118 0.02 0 1.7962e-10 7.3351e-08 1 2
4757 1 1.65822 -5.97154 0.02 0 5.21328e-13 1.70094e-10 1 2
4589 1 1.52451 -0.167125 0.02 0 0 0 1 2
4588 1 1.54881 -0.370969 0.02 0 0 0 1 2
4775 1 1.52335 -5.2199 0.02 0 0 0 1 2
4791 1 1.54545 -4.85207 0.02 0 0 0 1 2
4804 1 1.55849 -4.67505 0.02 0 0 0 1 2
4805 1 1.56597 -4.49409 0.02 0 0 0 1 2
4823 1 1.52564 -4.31213 0.02 0 0 0 1 2
4824 1 1.53066 -4.12772 0.02 0 0 0 1 2
4603 1 1.57077 -0.577099 0.02 0 0 0 1 2
4652 1 1.55262 -2.16444 0.02 0 0 0 1 2
4329 1 2.57266 0.215718 0.02 0 -2.01963e-31 5.06487e-32 1 2
4330 1 2.58212 0.410446 0.02 0 -8.86191e-27 -3.07168e-27 1 2
4331 1 2.5806 0.0181136 0.02 0 -1.95998e-28 4.37057e-29 1 2
4332 1 2.77378 0.179162 0.02 0 -1.59467e-26 9.26516e-27 1 2
4333 1 2.78485 0.379808 0.02 0 -1.27234e-24 -1.16757e-24 1 2
4334 1 2.97298 0.154281 0.02 0 -9.40473e-23 6.06461e-23 1 2
4773 1 1.64383 5.02659 0.02 0 0 0 1 2
4810 1 1.77391 6.01525 0.02 0 4.89812e-10 -9.1419e-10 1 2
4743 1 1.72823 3.97931 0.02 0 0 0 1 2
4347 1 2.72333 0.771232 0.02 0 -3.33794e-23 -7.97853e-24 1 2
4344 1 2.52968 0.600763 0.02 0 -8.2879e-26 -1.57032e-26 1 2
4345 1 2.51441 0.794556 0.02 0 -1.91055e-25 -2.53727e-26 1 2
4346 1 2.74295 0.577932 0.02 0 -9.40438e-24 -4.25353e-24 1 2
4348 1 2.95266 0.552322 0.02 0 -1.67021e-22 -1.65537e-22 1 2
4349 1 2.93015 0.745396 0.02 0 -1.89431e-21 -7.91585e-22 1 2
4838 1 1.79407 6.56445 0.02 0 -3.08956e-05 -1.99295e-05 1 2
4648 1 1.74621 1.47698 0.02 0 0 0 1 2
454 2 2.6 9.6 0 0 0 0 1 5
4360 1 2.68392 0.96105 0.02 0 -2.23554e-23 8.86035e-25 1 2
4358 1 2.47947 0.991407 0.02 0 -7.08231e-26 3.10721e-27 1 2
4359 1 2.53112 1.1823 0.02 0 -7.4173e-26 1.90651e-26 1 2
4361 1 2.73992 1.14254 0.02 0 -2.0713e-23 9.52933e-24 1 2
4362 1 2.90142 0.936412 0.02 0 -2.61934e-21 1.7191e-22 1 2
4363 1 2.94722 1.12348 0.02 0 -1.49107e-21 8.79401e-22 1 2
4824 1 1.76697 6.3837 0.02 0 4.16706e-06 -1.07141e-05 1 2
4796 1 1.70754 5.63177 0.02 0 0 0 1 2
455 2 2.8 9.6 0 0 0 0 1 5
4374 1 2.73022 1.337 0.02 0 -6.26753e-25 5.54523e-25 1 2
4372 1 2.53603 1.3839 0.02 0 0 0 1 2
4373 1 2.57637 1.58908 0.02 0 0 0 1 2
4375 1 2.75802 1.53796 0.02 0 -1.06306e-30 1.57705e-30 1 2
4772 1 1.65062 4.81643 0.02 0 0 0 1 2
4376 1 2.93289 1.31769 0.02 0 -1.08287e-22 7.65943e-23 1 2
4377 1 2.94863 1.51741 0.02 0 -7.31781e-24 7.60259e-24 1 2
4635 1 1.72688 1.28015 0.02 0 0 0 1 2
4600 1 1.74333 0.248268 0.02 0 0 0 1 2
488 2 2.6 9.8 0 0 0 0 1 5
489 2 2.8 9.8 0 0 0 0 1 5
4388 1 2.62651 1.79528 0.02 0 0 0 1 2
4390 1 2.6224 2.0128 0.02 0 0 0 1 2
4389 1 2.43208 2.02352 0.02 0 0 0 1 2
4387 1 2.43924 1.81475 0.02 0 0 0 1 2
4391 1 2.80549 1.74929 0.02 0 0 0 1 2
4392 1 2.80443 1.97177 0.02 0 0 0 1 2
4713 1 1.62023 3.39011 0.02 0 0 0 1 2
4712 1 1.63655 3.19848 0.02 0 0 0 1 2
4663 1 1.83264 2.04473 0.02 0 0 0 1 2
4662 1 1.84321 1.85304 0.02 0 0 0 1 2
4403 1 2.47612 2.22749 0.02 0 0 0 1 2
4405 1 2.49207 2.4293 0.02 0 0 0 1 2
4406 1 2.69163 2.43725 0.02 0 -1.89057e-24 -4.70294e-25 1 2
4404 1 2.66559 2.22687 0.02 0 0 0 1 2
4795 1 1.69222 5.43171 0.02 0 0 0 1 2
4413 1 2.89024 2.60699 0.02 0 -3.58851e-22 1.06115e-24 1 2
4407 1 2.84582 2.18115 0.02 0 -8.41984e-25 -8.49452e-25 1 2
4408 1 2.87892 2.39251 0.02 0 -1.01636e-22 -5.51254e-23 1 2
4822 1 1.80207 6.20108 0.02 0 -3.14148e-07 -6.52587e-07 1 2
485 2 2 9.8 0 0 0 0 1 5
4776 1 1.85036 5.21138 0.02 0 0 0 1 2
4421 1 2.4809 2.827 0.02 0 0 0 1 2
4420 1 2.51305 2.63014 0.02 0 0 0 1 2
4423 1 2.4679 3.02259 0.02 0 0 0 1 2
4422 1 2.68357 2.85207 0.02 0 -1.77333e-25 6.51533e-26 1 2
4424 1 2.70429 2.64782 0.02 0 -7.57462e-24 5.0329e-25 1 2
4794 1 1.65985 5.23146 0.02 0 0 0 1 2
4760 1 1.68499 4.60329 0.02 0 0 0 1 2
4759 1 1.69037 4.38771 0.02 0 0 0 1 2
4426 1 2.8785 2.82491 0.02 0 -9.2789e-23 4.555e-23 1 2
4428 1 2.86505 3.03706 0.02 0 -5.14751e-25 5.55795e-25 1 2
4775 1 1.83259 5.00179 0.02 0 0 0 1 2
4439 1 2.68274 3.24491 0.02 0 -1.60096e-25 -1.24873e-25 1 2
4441 1 2.65846 3.43299 0.02 0 -3.31352e-24 -1.22224e-24 1 2
4437 1 2.6666 3.05042 0.02 0 -1.09804e-28 -8.69755e-29 1 2
4438 1 2.47193 3.21643 0.02 0 -1.76957e-30 -3.21659e-31 1 2
4440 1 2.44835 3.40474 0.02 0 -7.9019e-30 -6.78443e-32 1 2
4808 1 1.7212 5.82955 0.02 0 0 0 1 2
4442 1 2.88294 3.2414 0.02 0 -2.09889e-24 -3.28805e-24 1 2
4444 1 2.87794 3.43516 0.02 0 -4.04472e-23 -3.08021e-23 1 2
4744 1 1.70369 4.17872 0.02 0 0 0 1 2
451 2 2 9.6 0 0 0 0 1 5
486 2 2.2 9.8 0 0 0 0 1 5
4774 1 1.8453 4.80064 0.02 0 0 0 1 2
4459 1 2.68334 3.80814 0.02 0 -1.33357e-23 1.78368e-24 1 2
4457 1 2.70272 3.61602 0.02 0 -2.06375e-23 -9.96935e-25 1 2