ITEM: TIMESTEP
71000
ITEM: NUMBER OF ATOMS
1416
ITEM: BOX BOUNDS ff ff pp
0.0000000000000000e+00 4.4000000000000004e+00
-1.0000000000000000e+01 1.0000000000000000e+01
-2.0000000000000000e-02 2.0000000000000000e-02
ITEM: ATOMS id type x y vx vy fx fy c_den c_phase
5730 1 0.596588 -6.75993 0.02 0 0 0 1 2
5731 1 0.409518 -6.55978 0.02 0 0 0 1 2
5732 1 0.610198 -6.56879 0.02 0 0 0 1 2
5733 1 0.797031 -6.73563 0.02 0 0 0 1 2
5735 1 0.812963 -6.55292 0.02 0 0 0 1 2
5734 1 0.993693 -6.75328 0.02 0 0 0 1 2
5736 1 1.01781 -6.5679 0.02 0 0 0 1 2
5737 1 1.19193 -6.73604 0.02 0 0 0 1 2
5739 1 1.23091 -6.56301 0.02 0 0 0 1 2
5738 1 1.39818 -6.76867 0.02 0 -1.54087e-07 -1.95784e-07 1 2
5740 1 1.42982 -6.58096 0.02 0 3.17658e-09 2.73251e-08 1 2
5659 1 0.895157 -0.998532 0.02 0 0 0 1 2
5621 1 1.37775 -0.255692 0.02 0 0 0 1 2
5658 1 1.09984 -1.25907 0.02 0 0 0 1 2
5667 1 1.48838 -1.34964 0.02 0 0 0 1 2
5745 1 0.439621 -6.37653 0.02 0 0 0 1 2
5746 1 0.589054 -6.18885 0.02 0 0 0 1 2
5747 1 0.640116 -6.37813 0.02 0 0 0 1 2
5748 1 0.835876 -6.36413 0.02 0 0 0 1 2
5750 1 0.791934 -6.1736 0.02 0 0 0 1 2
5749 1 1.03232 -6.38198 0.02 0 0 0 1 2
5751 1 0.993767 -6.19033 0.02 0 0 0 1 2
5752 1 1.2288 -6.38001 0.02 0 0 0 1 2
5754 1 1.19557 -6.1913 0.02 0 0 0 1 2
5753 1 1.42706 -6.39143 0.02 0 2.06112e-10 2.60766e-09 1 2
5755 1 1.40406 -6.20515 0.02 0 5.21794e-14 7.56818e-12 1 2
5657 1 1.29812 -1.29962 0.02 0 0 0 1 2
5661 1 0.901851 -1.20089 0.02 0 0 0 1 2
5656 1 1.09151 -1.05584 0.02 0 0 0 1 2
5626 1 0.819077 -0.140142 0.02 0 0 0 1 2
5760 1 0.576175 -5.99591 0.02 0 0 0 1 2
5761 1 0.588694 -5.79861 0.02 0 0 0 1 2
5762 1 0.783619 -5.9881 0.02 0 0 0 1 2
5764 1 0.791294 -5.80404 0.02 0 0 0 1 2
5763 1 1.00125 -6.00104 0.02 0 0 0 1 2
5765 1 0.997682 -5.81115 0.02 0 0 0 1 2
5766 1 1.21454 -6.003 0.02 0 0 0 1 2
5768 1 1.20421 -5.81359 0.02 0 0 0 1 2
5767 1 1.42541 -6.0243 0.02 0 0 0 1 2
5769 1 1.41977 -5.84316 0.02 0 0 0 1 2
5770 1 1.44587 -5.66559 0.02 0 0 0 1 2
5655 1 1.28572 -1.09013 0.02 0 0 0 1 2
5637 1 1.44389 -0.685757 0.02 0 0 0 1 2
5641 1 1.08079 -0.849358 0.02 0 0 0 1 2
5640 1 1.06799 -0.639103 0.02 0 0 0 1 2
5775 1 0.417208 -5.58567 0.02 0 0 0 1 2
5776 1 0.437256 -5.38583 0.02 0 0 0 1 2
5777 1 0.613516 -5.59899 0.02 0 0 0 1 2
5778 1 0.638397 -5.40026 0.02 0 0 0 1 2
5779 1 0.816589 -5.61945 0.02 0 0 0 1 2
5781 1 0.839765 -5.43257 0.02 0 0 0 1 2
5783 1 0.87921 -5.24437 0.02 0 0 0 1 2
5780 1 1.02603 -5.61815 0.02 0 0 0 1 2
5782 1 1.04637 -5.42229 0.02 0 0 0 1 2
5784 1 1.23497 -5.62533 0.02 0 0 0 1 2
5785 1 1.24843 -5.43244 0.02 0 0 0 1 2
5787 1 1.08982 -5.22877 0.02 0 0 0 1 2
5788 1 1.30066 -5.24749 0.02 0 0 0 1 2
5786 1 1.45072 -5.47912 0.02 0 0 0 1 2
5789 1 1.50293 -5.29448 0.02 0 0 0 1 2
5639 1 1.25568 -0.661033 0.02 0 0 0 1 2
5638 1 1.23232 -0.443907 0.02 0 0 0 1 2
5792 1 0.472437 -5.18892 0.02 0 0 0 1 2
5793 1 0.477163 -4.99345 0.02 0 0 0 1 2
5794 1 0.510366 -4.80394 0.02 0 0 0 1 2
5795 1 0.675398 -5.20589 0.02 0 0 0 1 2
5796 1 0.681982 -5.00972 0.02 0 0 0 1 2
5797 1 0.723947 -4.82157 0.02 0 0 0 1 2
5798 1 0.88323 -5.04988 0.02 0 0 0 1 2
5799 1 0.930238 -4.85503 0.02 0 0 0 1 2
5800 1 1.08924 -5.03441 0.02 0 0 0 1 2
5801 1 1.13898 -4.84467 0.02 0 0 0 1 2
5802 1 1.2971 -5.05747 0.02 0 0 0 1 2
5803 1 1.34463 -4.87165 0.02 0 0 0 1 2
5804 1 1.50722 -5.09969 0.02 0 0 0 1 2
5630 1 0.428223 -0.114362 0.02 0 0 0 1 2
5647 1 0.497489 -0.707446 0.02 0 0 0 1 2
5636 1 1.42461 -0.473851 0.02 0 0 0 1 2
5808 1 0.480204 -4.61251 0.02 0 0 0 1 2
5809 1 0.472561 -4.41611 0.02 0 0 0 1 2
5810 1 0.687738 -4.62864 0.02 0 0 0 1 2
5811 1 0.674549 -4.43154 0.02 0 0 0 1 2
5813 1 0.8739 -4.4529 0.02 0 0 0 1 2
5812 1 0.8944 -4.65561 0.02 0 0 0 1 2
5814 1 1.09696 -4.65095 0.02 0 0 0 1 2
5815 1 1.07546 -4.45609 0.02 0 0 0 1 2
5816 1 1.304 -4.67538 0.02 0 0 0 1 2
5817 1 1.28118 -4.47854 0.02 0 0 0 1 2
5818 1 1.48946 -4.50463 0.02 0 0 0 1 2
5819 1 1.50939 -4.70114 0.02 0 0 0 1 2
5646 1 0.49759 -0.511003 0.02 0 0 0 1 2
5645 1 0.691503 -0.771323 0.02 0 0 0 1 2
5625 1 1.00528 -0.199263 0.02 0 0 0 1 2
5823 1 0.426883 -4.21847 0.02 0 0 0 1 2
5824 1 0.58899 -4.03014 0.02 0 0 0 1 2
5825 1 0.630511 -4.23312 0.02 0 0 0 1 2
5826 1 0.833853 -4.24787 0.02 0 0 0 1 2
5828 1 0.784951 -4.04595 0.02 0 0 0 1 2
5827 1 1.03738 -4.26254 0.02 0 0 0 1 2
5829 1 0.99582 -4.06986 0.02 0 0 0 1 2
5830 1 1.2429 -4.27983 0.02 0 0 0 1 2
5832 1 1.20414 -4.08037 0.02 0 0 0 1 2
5831 1 1.44838 -4.30878 0.02 0 0 0 1 2
5833 1 1.40917 -4.11004 0.02 0 0 0 1 2
5654 1 1.27299 -0.878956 0.02 0 0 0 1 2
5664 1 0.505099 -1.10797 0.02 0 0 0 1 2
5624 1 1.04096 -0.420077 0.02 0 0 0 1 2
5673 1 0.903009 -1.40049 0.02 0 0 0 1 2
5663 1 0.498866 -0.907127 0.02 0 0 0 1 2
5839 1 0.550045 -3.81852 0.02 0 0 0 1 2
5840 1 0.546509 -3.60455 0.02 0 0 0 1 2
5841 1 0.737991 -3.82989 0.02 0 0 0 1 2
5843 1 0.734718 -3.61387 0.02 0 0 0 1 2
5842 1 0.930086 -3.87894 0.02 0 0 0 1 2
5844 1 0.927904 -3.67917 0.02 0 0 0 1 2
5845 1 1.13397 -3.8842 0.02 0 0 0 1 2
5846 1 1.34104 -3.90873 0.02 0 0 0 1 2
5847 1 1.13449 -3.68926 0.02 0 0 0 1 2
5848 1 1.34598 -3.7156 0.02 0 0 0 1 2
5849 1 1.10721 -3.49603 0.02 0 0 0 1 2
5850 1 1.3181 -3.52538 0.02 0 0 0 1 2
5672 1 1.08551 -1.65068 0.02 0 0 0 1 2
5627 1 0.627365 -0.152625 0.02 0 0 0 1 2
5671 1 1.28208 -1.71069 0.02 0 0 0 1 2
5662 1 0.701733 -1.17986 0.02 0 0 0 1 2
5855 1 0.528483 -3.39246 0.02 0 0 0 1 2
5856 1 0.528331 -3.17752 0.02 0 0 0 1 2
5858 1 0.718618 -3.39236 0.02 0 0 0 1 2
5859 1 0.718552 -3.1789 0.02 0 0 0 1 2
5857 1 0.90536 -3.47352 0.02 0 0 0 1 2
5860 1 0.903999 -3.2637 0.02 0 0 0 1 2
5861 1 1.10284 -3.30042 0.02 0 0 0 1 2
5862 1 1.31034 -3.33433 0.02 0 0 0 1 2
5863 1 1.07811 -3.09739 0.02 0 0 0 1 2
5864 1 1.27274 -3.13507 0.02 0 0 0 1 2
5865 1 1.47211 -3.17598 0.02 0 0 0 1 2
5670 1 1.10496 -1.457 0.02 0 0 0 1 2
5628 1 0.851491 -0.358881 0.02 0 0 0 1 2
5644 1 0.887234 -0.792507 0.02 0 0 0 1 2
5725 1 0.707545 -2.76422 0.02 0 0 0 1 2
5726 1 0.703971 -2.96783 0.02 0 0 0 1 2
5728 1 0.51048 -2.75075 0.02 0 0 0 1 2
5729 1 0.509803 -2.96044 0.02 0 0 0 1 2
5719 1 1.29324 -2.73523 0.02 0 0 0 1 2
5720 1 1.0962 -2.69522 0.02 0 0 0 1 2
5721 1 1.2913 -2.93657 0.02 0 0 0 1 2
5722 1 1.0909 -2.89647 0.02 0 0 0 1 2
5723 1 0.90526 -2.61946 0.02 0 0 0 1 2
5724 1 0.898746 -2.82939 0.02 0 0 0 1 2
5727 1 0.890584 -3.04285 0.02 0 0 0 1 2
5643 1 0.694306 -0.565154 0.02 0 0 0 1 2
5642 1 0.883997 -0.578435 0.02 0 0 0 1 2
5653 1 1.47188 -1.12526 0.02 0 0 0 1 2
5717 1 1.49064 -2.78421 0.02 0 0 0 1 2
5718 1 1.49304 -2.98138 0.02 0 0 0 1 2
5710 1 0.704198 -2.36315 0.02 0 0 0 1 2
5711 1 0.710484 -2.56319 0.02 0 0 0 1 2
5712 1 0.502266 -2.34122 0.02 0 0 0 1 2
5713 1 0.5137 -2.54458 0.02 0 0 0 1 2
5704 1 1.28163 -2.32488 0.02 0 0 0 1 2
5705 1 1.09056 -2.28018 0.02 0 0 0 1 2
5706 1 1.29644 -2.53231 0.02 0 0 0 1 2
5707 1 1.09829 -2.49111 0.02 0 0 0 1 2
5708 1 0.905269 -2.20648 0.02 0 0 0 1 2
5709 1 0.903418 -2.41286 0.02 0 0 0 1 2
5623 1 1.35031 -0.0379554 0.02 0 0 0 1 2
5660 1 0.696297 -0.97562 0.02 0 0 0 1 2
5622 1 1.19114 -0.224811 0.02 0 0 0 1 2
5652 1 1.4623 -0.901264 0.02 0 0 0 1 2
5702 1 1.47301 -2.37639 0.02 0 0 0 1 2
5703 1 1.49368 -2.58452 0.02 0 0 0 1 2
5691 1 0.88821 -1.79973 0.02 0 0 0 1 2
5692 1 0.683571 -1.77545 0.02 0 0 0 1 2
5693 1 0.878008 -2.00032 0.02 0 0 0 1 2
5694 1 0.676663 -1.96891 0.02 0 0 0 1 2
5695 1 0.705545 -2.16607 0.02 0 0 0 1 2
5696 1 0.477055 -1.93796 0.02 0 0 0 1 2
5697 1 0.500942 -2.14214 0.02 0 0 0 1 2
5687 1 1.28125 -1.91765 0.02 0 0 0 1 2
5688 1 1.08707 -1.8504 0.02 0 0 0 1 2
5689 1 1.26025 -2.11851 0.02 0 0 0 1 2
5690 1 1.07264 -2.05429 0.02 0 0 0 1 2
5620 1 1.16181 -0.00442981 0.02 0 0 0 1 2
5629 1 0.659328 -0.356455 0.02 0 0 0 1 2
5631 1 0.456488 -0.314496 0.02 0 0 0 1 2
5668 1 1.49369 -1.56411 0.02 0 0 0 1 2
5684 1 1.47294 -1.76874 0.02 0 0 0 1 2
5685 1 1.47768 -1.97137 0.02 0 0 0 1 2
5686 1 1.45776 -2.16946 0.02 0 0 0 1 2
5674 1 0.699118 -1.38137 0.02 0 0 0 1 2
5675 1 0.887233 -1.59823 0.02 0 0 0 1 2
5676 1 0.687995 -1.58116 0.02 0 0 0 1 2
5677 1 0.503754 -1.31101 0.02 0 0 0 1 2
5678 1 0.500293 -1.52107 0.02 0 0 0 1 2
5679 1 0.481262 -1.73196 0.02 0 0 0 1 2
5669 1 1.30328 -1.5075 0.02 0 0 0 1 2
5616 1 0.582276 0.259957 0.02 0 0 0 1 2
5617 1 0.592549 0.052024 0.02 0 0 0 1 2
5618 1 0.784063 0.0724965 0.02 0 0 0 1 2
5619 1 0.776081 0.280002 0.02 0 0 0 1 2
5620 1 0.967826 0.23308 0.02 0 0 0 1 2
5621 1 0.974465 0.0223507 0.02 0 0 0 1 2
5622 1 1.15935 0.211316 0.02 0 0 0 1 2
5623 1 1.35024 0.169145 0.02 0 0 0 1 2
5624 1 1.36086 0.372473 0.02 0 0 0 1 2
5625 1 1.16563 0.418928 0.02 0 0 0 1 2
5816 1 0.670005 5.60387 0.02 0 0 0 1 2
5815 1 0.86001 5.39038 0.02 0 0 0 1 2
5852 1 1.37168 6.36755 0.02 0 0 0 1 2
5851 1 1.17323 6.36361 0.02 0 0 0 1 2
5630 1 0.570283 0.469286 0.02 0 0 0 1 2
5631 1 0.563858 0.680704 0.02 0 0 0 1 2
5632 1 0.766415 0.481996 0.02 0 0 0 1 2
5633 1 0.757561 0.685826 0.02 0 0 0 1 2
5634 1 0.950112 0.641213 0.02 0 0 0 1 2
5635 1 0.966741 0.438466 0.02 0 0 0 1 2
5636 1 0.987409 0.837608 0.02 0 0 0 1 2
5637 1 1.14761 0.623512 0.02 0 0 0 1 2
5638 1 1.19251 0.816101 0.02 0 0 0 1 2
5639 1 1.34346 0.578065 0.02 0 0 0 1 2
5640 1 1.38662 0.777596 0.02 0 0 0 1 2
5814 1 0.667722 5.39255 0.02 0 0 0 1 2
5813 1 0.479514 5.57818 0.02 0 0 0 1 2
5850 1 1.33803 6.17858 0.02 0 0 0 1 2
5849 1 1.12865 6.17411 0.02 0 0 0 1 2
5645 1 0.427279 1.07701 0.02 0 0 0 1 2
5646 1 0.453126 1.27685 0.02 0 0 0 1 2
5647 1 0.587499 0.88943 0.02 0 0 0 1 2
5648 1 0.788022 0.884588 0.02 0 0 0 1 2
5649 1 0.624838 1.09277 0.02 0 0 0 1 2
5650 1 0.820248 1.08613 0.02 0 0 0 1 2
5651 1 0.659095 1.28998 0.02 0 0 0 1 2
5652 1 0.860232 1.28632 0.02 0 0 0 1 2
5653 1 1.00727 1.03842 0.02 0 0 0 1 2
5654 1 1.04567 1.25083 0.02 0 0 0 1 2
5655 1 1.2017 1.01292 0.02 0 0 0 1 2
5656 1 1.22711 1.21394 0.02 0 0 0 1 2
5657 1 1.39846 0.985554 0.02 0 0 0 1 2
5658 1 1.41495 1.19611 0.02 0 0 0 1 2
5830 1 0.670157 5.80865 0.02 0 0 0 1 2
5829 1 0.507799 5.98859 0.02 0 0 0 1 2
5848 1 0.971299 6.36566 0.02 0 0 0 1 2
5828 1 0.475205 5.78453 0.02 0 0 0 1 2
5663 1 0.506504 1.47043 0.02 0 0 0 1 2
5664 1 0.546173 1.66421 0.02 0 0 0 1 2
5665 1 0.71465 1.48123 0.02 0 0 0 1 2
5667 1 0.753677 1.67257 0.02 0 0 0 1 2
5666 1 0.914357 1.48088 0.02 0 0 0 1 2
5668 1 0.962447 1.6776 0.02 0 0 0 1 2
5669 1 1.10176 1.47828 0.02 0 0 0 1 2
5670 1 1.27352 1.41863 0.02 0 0 0 1 2
5671 1 1.16342 1.68355 0.02 0 0 0 1 2
5672 1 1.34283 1.6326 0.02 0 0 0 1 2
5673 1 1.46152 1.40425 0.02 0 0 0 1 2
5840 1 1.51276 5.98339 0.02 0 0 0 1 2
5812 1 0.476166 5.37435 0.02 0 0 0 1 2
5838 1 1.47701 5.79062 0.02 0 0 0 1 2
5846 1 0.922916 6.18222 0.02 0 0 0 1 2
5678 1 0.579106 1.85191 0.02 0 0 0 1 2
5679 1 0.580358 2.04173 0.02 0 0 0 1 2
5680 1 0.798614 1.85816 0.02 0 0 0 1 2
5681 1 0.782815 2.04562 0.02 0 0 0 1 2
5682 1 0.994454 2.05706 0.02 0 0 0 1 2
5683 1 1.00738 1.86993 0.02 0 0 0 1 2
5684 1 1.20401 1.88295 0.02 0 0 0 1 2
5685 1 1.2361 2.06902 0.02 0 0 0 1 2
5686 1 1.39179 1.85058 0.02 0 0 0 1 2
5687 1 1.44775 2.05065 0.02 0 0 0 1 2
5831 1 0.866755 5.79532 0.02 0 0 0 1 2
5847 1 0.764107 6.38513 0.02 0 0 0 1 2
5857 1 0.58773 6.56823 0.02 0 0 0 1 2
5817 1 0.863297 5.59439 0.02 0 0 0 1 2
5692 1 0.560127 2.40818 0.02 0 0 0 1 2
5693 1 0.547423 2.58999 0.02 0 0 0 1 2
5694 1 0.58438 2.22821 0.02 0 0 0 1 2
5695 1 0.816993 2.22749 0.02 0 0 0 1 2
5696 1 0.785675 2.4033 0.02 0 0 0 1 2
5697 1 0.771582 2.58381 0.02 0 0 0 1 2
5698 1 0.984923 2.58048 0.02 0 0 0 1 2
5699 1 1.05549 2.22749 0.02 0 0 0 1 2
5700 1 1.01817 2.40205 0.02 0 0 0 1 2
5701 1 1.26117 2.25492 0.02 0 0 0 1 2
5702 1 1.25943 2.43811 0.02 0 0 0 1 2
5703 1 1.19122 2.60748 0.02 0 0 0 1 2
5704 1 1.46648 2.24802 0.02 0 0 0 1 2
5705 1 1.47598 2.44175 0.02 0 0 0 1 2
5837 1 1.31078 5.9891 0.02 0 0 0 1 2
5836 1 1.10874 5.98378 0.02 0 0 0 1 2
5845 1 0.723539 6.20065 0.02 0 0 0 1 2
5866 1 1.39482 6.75488 0.02 0 -4.04057e-08 5.50958e-08 1 2
5823 1 1.45609 5.59191 0.02 0 0 0 1 2
5711 1 0.491115 2.9663 0.02 0 0 0 1 2
5712 1 0.492185 2.76998 0.02 0 0 0 1 2
5713 1 0.715547 2.75989 0.02 0 0 0 1 2
5714 1 0.688876 2.94667 0.02 0 0 0 1 2
5715 1 0.886078 2.94817 0.02 0 0 0 1 2
5716 1 0.943707 2.76421 0.02 0 0 0 1 2
5717 1 1.16367 2.79101 0.02 0 0 0 1 2
5719 1 1.08454 2.96713 0.02 0 0 0 1 2
5720 1 1.3051 2.97185 0.02 0 0 0 1 2
5718 1 1.38614 2.80636 0.02 0 0 0 1 2
5721 1 1.41431 2.62248 0.02 0 0 0 1 2
5822 1 1.4452 5.39064 0.02 0 0 0 1 2
5865 1 1.18786 6.74701 0.02 0 0 0 1 2
5818 1 1.05519 5.40415 0.02 0 0 0 1 2
5844 1 0.552516 6.38573 0.02 0 0 0 1 2
5726 1 0.447961 3.16089 0.02 0 0 0 1 2
5727 1 0.471879 3.3575 0.02 0 0 0 1 2
5728 1 0.662958 3.13641 0.02 0 0 0 1 2
5730 1 0.664342 3.32717 0.02 0 0 0 1 2
5731 1 0.860359 3.32702 0.02 0 0 0 1 2
5729 1 0.889694 3.13863 0.02 0 0 0 1 2
5732 1 1.06365 3.31714 0.02 0 0 0 1 2
5733 1 1.13669 3.14711 0.02 0 0 0 1 2
5734 1 1.36509 3.1459 0.02 0 0 0 1 2
5735 1 1.29481 3.32024 0.02 0 0 0 1 2
5858 1 0.587383 6.75255 0.02 0 0 0 1 2
5843 1 0.528555 6.19047 0.02 0 0 0 1 2
5806 1 1.44386 5.19056 0.02 0 0 0 1 2
5805 1 1.40962 4.99646 0.02 0 0 0 1 2
5740 1 0.45443 3.54804 0.02 0 0 0 1 2
5741 1 0.508114 3.89884 0.02 0 0 0 1 2
5742 1 0.522323 3.71725 0.02 0 0 0 1 2
5743 1 0.674543 3.52417 0.02 0 0 0 1 2
5745 1 0.730008 3.71568 0.02 0 0 0 1 2
5744 1 0.888511 3.51835 0.02 0 0 0 1 2
5746 1 0.928805 3.70997 0.02 0 0 0 1 2
5747 1 0.915119 3.90791 0.02 0 0 0 1 2
5748 1 1.09665 3.5067 0.02 0 0 0 1 2
5749 1 1.29326 3.51062 0.02 0 0 0 1 2
5750 1 1.11901 3.71006 0.02 0 0 0 1 2
5751 1 1.30343 3.72604 0.02 0 0 0 1 2
5752 1 1.47888 3.5681 0.02 0 0 0 1 2
5753 1 1.48607 3.77684 0.02 0 0 0 1 2
5835 1 1.27677 5.79627 0.02 0 0 0 1 2
5834 1 1.06992 5.79528 0.02 0 0 0 1 2
5864 1 1.37738 6.56244 0.02 0 0 0 1 2
5863 1 1.18783 6.55834 0.02 0 0 0 1 2
5758 1 0.511471 4.08785 0.02 0 0 0 1 2
5759 1 0.48197 4.2803 0.02 0 0 0 1 2
5760 1 0.7146 3.91662 0.02 0 0 0 1 2
5761 1 0.711563 4.11818 0.02 0 0 0 1 2
5763 1 0.679667 4.31636 0.02 0 0 0 1 2
5764 1 0.872675 4.32326 0.02 0 0 0 1 2
5762 1 0.906224 4.11088 0.02 0 0 0 1 2
5765 1 1.05827 4.33991 0.02 0 0 0 1 2
5766 1 1.111 3.92094 0.02 0 0 0 1 2
5767 1 1.29996 3.94528 0.02 0 0 0 1 2
5768 1 1.09582 4.13074 0.02 0 0 0 1 2
5769 1 1.28135 4.1593 0.02 0 0 0 1 2
5770 1 1.46706 4.18741 0.02 0 0 0 1 2
5771 1 1.48794 3.98109 0.02 0 0 0 1 2
5833 1 0.90667 5.98973 0.02 0 0 0 1 2
5832 1 0.70716 6.00627 0.02 0 0 0 1 2
5862 1 0.985618 6.72972 0.02 0 0 0 1 2
5860 1 0.992282 6.54948 0.02 0 0 0 1 2
5776 1 0.475266 4.48606 0.02 0 0 0 1 2
5777 1 0.477816 4.71315 0.02 0 0 0 1 2
5778 1 0.658393 4.52044 0.02 0 0 0 1 2
5779 1 0.844102 4.53979 0.02 0 0 0 1 2
5780 1 0.654887 4.73643 0.02 0 0 0 1 2
5781 1 0.833702 4.75752 0.02 0 0 0 1 2
5782 1 1.02917 4.55417 0.02 0 0 0 1 2
5783 1 1.01545 4.77584 0.02 0 0 0 1 2
5784 1 1.24014 4.37314 0.02 0 0 0 1 2
5785 1 1.21578 4.58592 0.02 0 0 0 1 2
5786 1 1.41234 4.59976 0.02 0 0 0 1 2
5787 1 1.4253 4.3955 0.02 0 0 0 1 2
5821 1 1.25925 5.60023 0.02 0 0 0 1 2
5820 1 1.25035 5.39931 0.02 0 0 0 1 2
5861 1 0.789746 6.7551 0.02 0 0 0 1 2
5859 1 0.789979 6.56765 0.02 0 0 0 1 2
5819 1 1.06091 5.60241 0.02 0 0 0 1 2
5793 1 0.466338 4.93785 0.02 0 0 0 1 2
5794 1 0.466307 5.16469 0.02 0 0 0 1 2
5795 1 0.646705 4.96182 0.02 0 0 0 1 2
5796 1 0.831848 4.97123 0.02 0 0 0 1 2
5797 1 0.652981 5.17761 0.02 0 0 0 1 2
5798 1 0.843019 5.1837 0.02 0 0 0 1 2
5799 1 1.01903 4.99551 0.02 0 0 0 1 2
5800 1 1.03927 5.20262 0.02 0 0 0 1 2
5801 1 1.20259 4.79243 0.02 0 0 0 1 2
5802 1 1.21083 4.99763 0.02 0 0 0 1 2
5803 1 1.2402 5.19836 0.02 0 0 0 1 2
5804 1 1.40021 4.79891 0.02 0 0 0 1 2
1509 2 2 -10 0 0 0 0 1 5
1510 2 2.2 -10 0 0 0 0 1 5
1511 2 2.4 -10 0 0 0 0 1 5
1543 2 2 -9.8 0 0 0 0 1 5
1544 2 2.2 -9.8 0 0 0 0 1 5
1545 2 2.4 -9.8 0 0 0 0 1 5
1577 2 2 -9.6 0 0 0 0 1 5
1578 2 2.2 -9.6 0 0 0 0 1 5
1579 2 2.4 -9.6 0 0 0 0 1 5
1512 2 2.6 -10 0 0 0 0 1 5
1513 2 2.8 -10 0 0 0 0 1 5
1546 2 2.6 -9.8 0 0 0 0 1 5
1547 2 2.8 -9.8 0 0 0 0 1 5
1580 2 2.6 -9.6 0 0 0 0 1 5
1581 2 2.8 -9.6 0 0 0 0 1 5
1645 2 2 -9.2 0 0 0 0 1 5
1646 2 2.2 -9.2 0 0 0 0 1 5
1647 2 2.4 -9.2 0 0 0 0 1 5
1613 2 2.4 -9.4 0 0 0 0 1 5
1612 2 2.2 -9.4 0 0 0 0 1 5
1611 2 2 -9.4 0 0 0 0 1 5
1648 2 2.6 -9.2 0 0 0 0 1 5
1649 2 2.8 -9.2 0 0 0 0 1 5
1615 2 2.8 -9.4 0 0 0 0 1 5
1614 2 2.6 -9.4 0 0 0 0 1 5
1679 2 2 -9 0 0 0 0 1 5
1680 2 2.2 -9 0 0 0 0 1 5
1681 2 2.4 -9 0 0 0 0 1 5
1713 2 2 -8.8 0 0 0 0 1 5
1714 2 2.2 -8.8 0 0 0 0 1 5
1715 2 2.4 -8.8 0 0 0 0 1 5
1682 2 2.6 -9 0 0 0 0 1 5
1683 2 2.8 -9 0 0 0 0 1 5
1716 2 2.6 -8.8 0 0 0 0 1 5
1717 2 2.8 -8.8 0 0 0 0 1 5
1783 2 2.4 -8.4 0 0 0 0 1 5
1782 2 2.2 -8.4 0 0 0 0 1 5
1781 2 2 -8.4 0 0 0 0 1 5
1747 2 2 -8.6 0 0 0 0 1 5
1748 2 2.2 -8.6 0 0 0 0 1 5
1749 2 2.4 -8.6 0 0 0 0 1 5
1785 2 2.8 -8.4 0 0 0 0 1 5
1784 2 2.6 -8.4 0 0 0 0 1 5
1750 2 2.6 -8.6 0 0 0 0 1 5
1751 2 2.8 -8.6 0 0 0 0 1 5
1851 2 2.4 -8 0 0 0 0 1 5
1850 2 2.2 -8 0 0 0 0 1 5
1849 2 2 -8 0 0 0 0 1 5
1817 2 2.4 -8.2 0 0 0 0 1 5
1816 2 2.2 -8.2 0 0 0 0 1 5
1815 2 2 -8.2 0 0 0 0 1 5
1853 2 2.8 -8 0 0 0 0 1 5
1852 2 2.6 -8 0 0 0 0 1 5
1819 2 2.8 -8.2 0 0 0 0 1 5
1818 2 2.6 -8.2 0 0 0 0 1 5
1953 2 2.4 -7.4 0 0 0 0 1.00138 5
1952 2 2.2 -7.4 0 0 0 0 1.01235 5
1951 2 2 -7.4 0 0 0 0 0.992476 5
1919 2 2.4 -7.6 0 0 0 0 1 5
1918 2 2.2 -7.6 0 0 0 0 1 5
1917 2 2 -7.6 0 0 0 0 1 5
1885 2 2.4 -7.8 0 0 0 0 1 5
1884 2 2.2 -7.8 0 0 0 0 1 5
1883 2 2 -7.8 0 0 0 0 1 5
1955 2 2.8 -7.4 0 0 0 0 1.00105 5
1954 2 2.6 -7.4 0 0 0 0 1.00111 5
1921 2 2.8 -7.6 0 0 0 0 1 5
1920 2 2.6 -7.6 0 0 0 0 1 5
1887 2 2.8 -7.8 0 0 0 0 1 5
1886 2 2.6 -7.8 0 0 0 0 1 5
2021 2 2.4 -7 0 0 0 0 1.00441 5
2020 2 2.2 -7 0 0 0 0 1.00987 5
2019 2 2 -7 0 0 0 0 0.994596 5
1987 2 2.4 -7.2 0 0 0 0 1.00359 5
1986 2 2.2 -7.2 0 0 0 0 1.01145 5
1985 2 2 -7.2 0 0 0 0 0.992759 5
2023 2 2.8 -7 0 0 0 0 1.00021 5
2022 2 2.6 -7 0 0 0 0 1.001 5
1989 2 2.8 -7.2 0 0 0 0 1.00038 5
1988 2 2.6 -7.2 0 0 0 0 1.001 5
5479 1 2.62072 -6.73288 0.02 0 -0.00197128 -0.0003733 1 2
5481 1 2.65902 -6.55059 0.02 0 0.000332374 0.000562147 1 2
5478 1 2.42507 -6.74131 0.02 0 -0.00287874 -0.000262861 1 2
5477 1 2.46046 -6.55585 0.02 0 -5.58153e-05 0.000208569 1 2
5480 1 2.81797 -6.75405 0.02 0 -0.00292778 -0.000473919 1 2
5649 1 1.65139 -0.93144 0.02 0 0 0 1 2
5699 1 1.65512 -2.21109 0.02 0 0 0 1 2
5482 1 2.8478 -6.56092 0.02 0 0.000154112 0.000498747 1 2
5634 1 1.83476 -0.739652 0.02 0 0 0 1 2
5632 1 1.81534 -0.534831 0.02 0 0 0 1 2
5492 1 2.41885 -6.37194 0.02 0 -7.23421e-07 -2.47598e-07 1 2
5495 1 2.67642 -6.18267 0.02 0 7.41635e-06 1.37558e-05 1 2
5493 1 2.62683 -6.3674 0.02 0 0.000121892 0.000133467 1 2
5491 1 2.47481 -6.18665 0.02 0 2.03544e-06 3.36834e-06 1 2
5494 1 2.83566 -6.36328 0.02 0 9.24143e-05 0.000121471 1 2
5633 1 1.62014 -0.513537 0.02 0 0 0 1 2
5666 1 1.68421 -1.56535 0.02 0 0 0 1 2
5496 1 2.8677 -6.16039 0.02 0 3.66784e-06 8.28302e-06 1 2
5650 1 1.84613 -1.15024 0.02 0 0 0 1 2
5648 1 1.84547 -0.942931 0.02 0 0 0 1 2
5506 1 2.68698 -5.98398 0.02 0 2.92736e-08 8.97682e-08 1 2
5508 1 2.72809 -5.77274 0.02 0 5.96649e-12 2.91965e-11 1 2
5505 1 2.48513 -5.99723 0.02 0 5.4737e-08 8.38757e-08 1 2
5507 1 2.5343 -5.80658 0.02 0 2.07404e-10 2.52813e-10 1 2
5665 1 1.68126 -1.35301 0.02 0 0 0 1 2
5510 1 2.92 -5.75045 0.02 0 9.91537e-13 7.22996e-12 1 2
5509 1 2.87938 -5.95423 0.02 0 4.94759e-09 1.9832e-08 1 2
5683 1 1.67016 -2.00359 0.02 0 0 0 1 2
5867 1 1.75236 -3.3959 0.02 0 0 0 1 2
5682 1 1.85808 -1.96684 0.02 0 0 0 1 2
5523 1 2.55341 -5.227 0.02 0 -6.12978e-26 -5.5819e-27 1 2
5519 1 2.53956 -5.61253 0.02 0 0 0 1 2
5521 1 2.54602 -5.41997 0.02 0 -5.30863e-31 -1.00676e-31 1 2
5522 1 2.75453 -5.36883 0.02 0 -3.31968e-24 -1.73182e-24 1 2
5520 1 2.74142 -5.56602 0.02 0 -1.9549e-26 -1.79155e-26 1 2
5525 1 2.96086 -5.35484 0.02 0 -3.56192e-22 -2.10096e-22 1 2
5524 1 2.94286 -5.55149 0.02 0 -2.7567e-24 -3.13073e-24 1 2
5854 1 1.75253 -3.58325 0.02 0 0 0 1 2
5852 1 1.77356 -3.77083 0.02 0 0 0 1 2
5533 1 2.52413 -5.03675 0.02 0 -6.91624e-27 2.63884e-28 1 2
5535 1 2.72862 -4.99135 0.02 0 -7.09288e-24 1.89684e-24 1 2
5536 1 2.5438 -4.84099 0.02 0 -5.96484e-27 -1.55577e-27 1 2
5534 1 2.76166 -5.17716 0.02 0 -2.23508e-23 -2.41332e-24 1 2
5537 1 2.7512 -4.80092 0.02 0 -5.75976e-24 -1.83449e-24 1 2
5538 1 2.96972 -5.15865 0.02 0 -2.01419e-21 -2.08728e-22 1 2
5539 1 2.9378 -4.96681 0.02 0 -7.50046e-22 2.44291e-22 1 2
5838 1 1.76262 -3.96157 0.02 0 0 0 1 2
5807 1 1.74267 -4.92468 0.02 0 0 0 1 2
5547 1 2.70976 -4.61708 0.02 0 -1.06109e-23 -1.29343e-24 1 2
5549 1 2.70644 -4.42822 0.02 0 -1.00309e-23 3.719e-27 1 2
5546 1 2.50509 -4.65191 0.02 0 -3.61565e-26 -4.03281e-27 1 2
5548 1 2.50419 -4.4537 0.02 0 -2.76289e-26 -8.24457e-28 1 2
5550 1 2.95489 -4.77054 0.02 0 -1.03657e-21 -5.50052e-22 1 2
5552 1 2.91564 -4.57905 0.02 0 -2.55818e-21 -5.60014e-22 1 2
5553 1 2.90357 -4.38703 0.02 0 -3.49865e-21 -1.68044e-22 1 2
5651 1 1.65667 -1.14299 0.02 0 0 0 1 2
5681 1 1.6647 -1.78553 0.02 0 0 0 1 2
5616 1 1.73055 -0.115834 0.02 0 0 0 1 2
5617 1 1.76054 -0.326468 0.02 0 0 0 1 2
5564 1 2.66461 -4.07209 0.02 0 -2.42505e-24 3.80858e-25 1 2
5562 1 2.65994 -4.25029 0.02 0 -2.91376e-24 -1.53517e-25 1 2
5563 1 2.43813 -4.07443 0.02 0 -6.99068e-30 -7.35079e-31 1 2
5561 1 2.44841 -4.26376 0.02 0 -2.54506e-29 -1.48639e-30 1 2
5701 1 1.66389 -2.41858 0.02 0 0 0 1 2
5565 1 2.90156 -4.20495 0.02 0 -3.18353e-21 2.57953e-22 1 2
5566 1 2.86698 -4.02467 0.02 0 -9.44714e-22 1.70191e-22 1 2
5635 1 1.63636 -0.722222 0.02 0 0 0 1 2
5366 1 2.9455 -0.114722 0.02 0 -2.85334e-24 2.83486e-24 1 2
5579 1 2.60961 -3.51178 0.02 0 -5.71204e-34 4.53158e-34 1 2
5578 1 2.63132 -3.70607 0.02 0 -3.97642e-28 1.7091e-28 1 2
5576 1 2.62744 -3.89342 0.02 0 -7.11181e-26 3.38319e-26 1 2
5575 1 2.40767 -3.89035 0.02 0 -4.93016e-32 4.56494e-33 1 2
5577 1 2.42293 -3.70246 0.02 0 0 0 1 2
5580 1 2.83244 -3.65883 0.02 0 -2.13868e-23 1.06248e-23 1 2
5835 1 1.61523 -4.13072 0.02 0 0 0 1 2
5581 1 2.85531 -3.84291 0.02 0 -2.44527e-22 8.01578e-23 1 2
5716 1 1.69761 -3.01868 0.02 0 0 0 1 2
5363 1 2.93925 -0.307971 0.02 0 -2.5629e-22 1.25957e-22 1 2
5680 1 1.85524 -1.76142 0.02 0 0 0 1 2
5474 1 2.55384 -3.12678 0.02 0 0 0 1 2
5475 1 2.61817 -3.31305 0.02 0 0 0 1 2
5476 1 2.41697 -3.32049 0.02 0 0 0 1 2
5471 1 2.81605 -3.27594 0.02 0 0 0 1 2
5472 1 2.81653 -3.46983 0.02 0 -5.07655e-25 3.2274e-25 1 2
5473 1 2.77393 -3.09032 0.02 0 0 0 1 2
5834 1 1.65244 -4.33223 0.02 0 0 0 1 2
5771 1 1.62814 -6.00969 0.02 0 1.28295e-13 2.26725e-12 1 2
5758 1 1.63001 -6.18795 0.02 0 1.53091e-09 4.41864e-08 1 2
5700 1 1.85209 -2.39151 0.02 0 0 0 1 2
5698 1 1.84926 -2.17895 0.02 0 0 0 1 2
5836 1 1.82044 -4.15401 0.02 0 0 0 1 2
5460 1 2.55082 -2.93542 0.02 0 0 0 1 2
5457 1 2.70997 -2.71402 0.02 0 0 0 1 2
5458 1 2.49829 -2.74803 0.02 0 0 0 1 2
5459 1 2.75116 -2.90063 0.02 0 0 0 1 2
5456 1 2.95206 -2.89076 0.02 0 -4.7653e-30 -8.7304e-30 1 2
5454 1 2.93034 -2.70067 0.02 0 0 0 1 2
5756 1 1.6217 -6.36654 0.02 0 5.86373e-09 1.17809e-06 1 2
5369 1 2.54312 -0.347981 0.02 0 -8.18251e-30 7.48963e-31 1 2
5444 1 2.43052 -2.36162 0.02 0 0 0 1 2
5446 1 2.49314 -2.5513 0.02 0 0 0 1 2
5445 1 2.6942 -2.52318 0.02 0 0 0 1 2
5443 1 2.63554 -2.33645 0.02 0 0 0 1 2
5715 1 1.69087 -2.82192 0.02 0 0 0 1 2
5442 1 2.89936 -2.51352 0.02 0 -1.19787e-31 -1.9574e-31 1 2
5440 1 2.84808 -2.328 0.02 0 -1.66469e-27 -7.03292e-28 1 2
5714 1 1.69337 -2.62142 0.02 0 0 0 1 2
5368 1 2.73932 -0.325939 0.02 0 -1.31806e-24 4.85987e-25 1 2
5370 1 2.5232 -0.152884 0.02 0 0 0 1 2
5428 1 2.82586 -2.14062 0.02 0 -3.87578e-26 -2.55536e-26 1 2
5427 1 2.82211 -1.95058 0.02 0 -1.08175e-24 -2.98768e-25 1 2
5426 1 2.82689 -1.75666 0.02 0 -7.92108e-24 -7.20369e-25 1 2
5430 1 2.42529 -1.94759 0.02 0 0 0 1 2
5432 1 2.42298 -2.15848 0.02 0 0 0 1 2
5431 1 2.61958 -2.14153 0.02 0 -1.04985e-30 -2.77543e-31 1 2
5429 1 2.61959 -1.94213 0.02 0 -9.96598e-28 -2.35984e-28 1 2
5425 1 2.6288 -1.74 0.02 0 -9.41617e-27 -2.55047e-29 1 2
5822 1 1.85573 -4.35019 0.02 0 0 0 1 2
5772 1 1.83653 -6.01202 0.02 0 3.98146e-09 1.22635e-08 1 2
5759 1 1.85468 -6.19302 0.02 0 -1.55526e-06 2.75419e-06 1 2
5743 1 1.62808 -6.55022 0.02 0 -1.07234e-06 1.26898e-05 1 2
5741 1 1.60654 -6.73157 0.02 0 -8.5852e-05 -5.29575e-05 1 2
5411 1 2.81759 -1.55807 0.02 0 -1.20163e-23 -1.76442e-24 1 2
5415 1 2.43631 -1.73208 0.02 0 0 0 1 2
5413 1 2.62519 -1.53436 0.02 0 -2.442e-26 -3.83144e-27 1 2
5412 1 2.65952 -1.32969 0.02 0 -3.40736e-25 -3.83174e-26 1 2
5414 1 2.44036 -1.50843 0.02 0 0 0 1 2
5757 1 1.81645 -6.375 0.02 0 -3.11769e-06 1.62255e-05 1 2
5744 1 1.83255 -6.56511 0.02 0 -0.000348121 0.000202482 1 2
5408 1 2.85012 -1.35657 0.02 0 -1.1079e-22 -8.71031e-24 1 2
5868 1 1.67518 -3.21298 0.02 0 0 0 1 2
5821 1 1.69873 -4.53126 0.02 0 0 0 1 2
5820 1 1.70938 -4.72887 0.02 0 0 0 1 2
5395 1 2.4414 -0.901014 0.02 0 0 0 1 2
5396 1 2.6343 -1.12575 0.02 0 -2.0414e-25 6.44774e-27 1 2
5394 1 2.64406 -0.929103 0.02 0 -1.45162e-25 -5.01398e-27 1 2
5392 1 2.83954 -0.939246 0.02 0 -8.17268e-23 -7.40153e-25 1 2
5397 1 2.42893 -1.09749 0.02 0 0 0 1 2
5398 1 2.46596 -1.29527 0.02 0 0 0 1 2
5393 1 2.83606 -1.14737 0.02 0 -8.28172e-23 1.40955e-24 1 2
5742 1 1.80272 -6.74733 0.02 0 -0.00166211 -0.000456109 1 2
5367 1 2.73496 -0.127069 0.02 0 -1.52297e-26 1.13787e-26 1 2
5806 1 1.7178 -5.11353 0.02 0 0 0 1 2
5791 1 1.71142 -5.3009 0.02 0 0 0 1 2
5383 1 2.42589 -0.705281 0.02 0 0 0 1 2
5382 1 2.63191 -0.732508 0.02 0 -2.26355e-25 2.63903e-27 1 2
5381 1 2.59715 -0.539044 0.02 0 -6.59925e-26 4.7196e-27 1 2
5380 1 2.82991 -0.727275 0.02 0 -7.62324e-23 -1.97814e-24 1 2
5379 1 2.80136 -0.522502 0.02 0 -2.82629e-23 2.33711e-24 1 2
5773 1 1.66826 -5.83787 0.02 0 0 0 1 2
5774 1 1.6565 -5.66211 0.02 0 0 0 1 2
5790 1 1.66949 -5.48168 0.02 0 0 0 1 2
5619 1 1.56773 -0.30017 0.02 0 0 0 1 2
5618 1 1.53923 -0.0865354 0.02 0 0 0 1 2
5805 1 1.54192 -4.90537 0.02 0 0 0 1 2
5837 1 1.54847 -3.93693 0.02 0 0 0 1 2
5851 1 1.5602 -3.74724 0.02 0 0 0 1 2
5853 1 1.53519 -3.55933 0.02 0 0 0 1 2
5866 1 1.52546 -3.37192 0.02 0 0 0 1 2
5361 1 2.70942 0.262486 0.02 0 0 0 1 2
5358 1 2.54756 0.0395651 0.02 0 0 0 1 2
5359 1 2.51256 0.237385 0.02 0 0 0 1 2
5360 1 2.74912 0.0702503 0.02 0 0 0 1 2
5362 1 2.95115 0.0800426 0.02 0 -1.00312e-28 2.39878e-28 1 2
5363 1 2.9193 0.273847 0.02 0 0 0 1 2
5854 1 1.74735 6.16899 0.02 0 2.34004e-08 -5.82422e-08 1 2
5856 1 1.77503 6.36567 0.02 0 -4.95223e-07 -5.18519e-06 1 2
5739 1 1.73895 3.35893 0.02 0 0 0 1 2
5373 1 2.54907 0.63279 0.02 0 0 0 1 2
5374 1 2.57119 0.834251 0.02 0 0 0 1 2
5372 1 2.52851 0.437467 0.02 0 0 0 1 2
5375 1 2.75284 0.447179 0.02 0 0 0 1 2
5376 1 2.7525 0.632799 0.02 0 0 0 1 2
5377 1 2.77378 0.823418 0.02 0 0 0 1 2
5381 1 2.97989 0.852508 0.02 0 0 0 1 2
5378 1 2.97553 0.459561 0.02 0 0 0 1 2
5379 1 2.95974 0.654789 0.02 0 0 0 1 2
5737 1 1.757 3.15817 0.02 0 0 0 1 2
5725 1 1.78874 2.9698 0.02 0 0 0 1 2
5389 1 2.62028 1.24564 0.02 0 0 0 1 2
5388 1 2.4348 1.27261 0.02 0 0 0 1 2
5387 1 2.59265 1.03793 0.02 0 0 0 1 2
5390 1 2.78764 1.02007 0.02 0 0 0 1 2
5391 1 2.80629 1.22846 0.02 0 0 0 1 2
5809 1 1.64615 5.15875 0.02 0 0 0 1 2
5392 1 2.97944 1.06131 0.02 0 0 0 1 2
5867 1 1.77634 6.75466 0.02 0 -0.00121038 0.000312412 1 2
5689 1 1.76068 1.77663 0.02 0 0 0 1 2
5404 1 2.68111 1.67485 0.02 0 0 0 1 2
5402 1 2.65862 1.45902 0.02 0 0 0 1 2
5403 1 2.49756 1.69001 0.02 0 0 0 1 2
5401 1 2.47326 1.47994 0.02 0 0 0 1 2
5405 1 2.84132 1.44703 0.02 0 0 0 1 2
5808 1 1.61575 4.96929 0.02 0 0 0 1 2
5792 1 1.60616 4.78084 0.02 0 0 0 1 2
5407 1 2.86463 1.67125 0.02 0 0 0 1 2
5842 1 1.86146 5.77675 0.02 0 -6.36785e-13 -7.01422e-13 1 2
5827 1 1.8508 5.57779 0.02 0 0 0 1 2
5417 1 2.72084 1.88768 0.02 0 0 0 1 2
5415 1 2.54359 1.916 0.02 0 0 0 1 2
5416 1 2.5765 2.14432 0.02 0 0 0 1 2
5418 1 2.75391 2.10474 0.02 0 0 0 1 2
5841 1 1.71287 5.97079 0.02 0 2.50065e-12 -5.29862e-11 1 2
5419 1 2.90048 1.89594 0.02 0 0 0 1 2
5421 1 2.93617 2.11603 0.02 0 0 0 1 2
5773 1 1.65687 4.20411 0.02 0 0 0 1 2
5826 1 1.83602 5.38035 0.02 0 0 0 1 2
454 2 2.6 9.6 0 0 0 0 1 5
5430 1 2.4304 2.30901 0.02 0 0 0 1 2
5429 1 2.41504 2.5326 0.02 0 0 0 1 2
5431 1 2.60996 2.36875 0.02 0 0 0 1 2
5432 1 2.59049 2.59423 0.02 0 0 0 1 2
5433 1 2.77099 2.53851 0.02 0 0 0 1 2
5434 1 2.78999 2.32008 0.02 0 0 0 1 2
5435 1 2.9686 2.3479 0.02 0 0 0 1 2
5436 1 2.95044 2.57915 0.02 0 0 0 1 2
5869 1 1.76614 6.55918 0.02 0 -3.36861e-05 1.4055e-05 1 2
5661 1 1.7894 0.935581 0.02 0 0 0 1 2
455 2 2.8 9.6 0 0 0 0 1 5
5444 1 2.40237 2.76028 0.02 0 0 0 1 2
5446 1 2.57587 3.02846 0.02 0 -5.57793e-31 -2.30761e-31 1 2
5445 1 2.58806 2.8109 0.02 0 0 0 1 2
5447 1 2.77618 2.75478 0.02 0 0 0 1 2
5448 1 2.75912 2.9707 0.02 0 -9.36958e-27 -5.33776e-27 1 2
5449 1 2.95548 2.8148 0.02 0 -3.84248e-26 -5.6883e-26 1 2
5452 1 2.93274 3.04024 0.02 0 -1.01114e-23 -8.73061e-24 1 2
5772 1 1.67373 3.99047 0.02 0 0 0 1 2
5644 1 1.76394 0.731216 0.02 0 0 0 1 2
488 2 2.6 9.8 0 0 0 0 1 5
489 2 2.8 9.8 0 0 0 0 1 5
5461 1 2.70785 3.41439 0.02 0 -1.03145e-23 -2.53127e-24 1 2
5459 1 2.54434 3.23163 0.02 0 -8.79657e-28 -2.18804e-28 1 2
5460 1 2.51426 3.43426 0.02 0 -3.16837e-26 -8.41603e-27 1 2
5462 1 2.74038 3.1994 0.02 0 -1.29215e-24 -4.93707e-25 1 2
5463 1 2.92795 3.24732 0.02 0 -2.537e-22 -1.68473e-22 1 2
5465 1 2.8982 3.44591 0.02 0 -1.05918e-21 -3.45939e-22 1 2
5755 1 1.6734 3.76805 0.02 0 0 0 1 2
5754 1 1.67223 3.55257 0.02 0 0 0 1 2
485 2 2 9.8 0 0 0 0 1 5
451 2 2 9.6 0 0 0 0 1 5
5475 1 2.44577 3.82853 0.02 0 -1.61707e-27 -8.47224e-29 1 2
5474 1 2.6784 3.6212 0.02 0 -1.00658e-23 -9.07637e-25 1 2
5476 1 2.64876 3.81922 0.02 0 -4.5237e-24 1.40542e-25 1 2
5473 1 2.47067 3.63127 0.02 0 -3.56786e-26 -4.34188e-27 1 2
5707 1 1.67732 2.40662 0.02 0 0 0 1 2
5789 1 1.62056 4.59309 0.02 0 0 0 1 2
5477 1 2.88366 3.64157 0.02 0 -1.93001e-21 -2.10986e-22 1 2
5479 1 2.84986 3.83413 0.02 0 -1.07564e-21 1.10648e-22 1 2
486 2 2.2 9.8 0 0 0 0 1 5
5811 1 1.84994 5.18429 0.02 0 0 0 1 2
487 2 2.4 9.8 0 0 0 0 1 5
5491 1 2.42114 4.23193 0.02 0 0 0 1 2
5489 1 2.41615 4.02729 0.02 0 -2.51962e-29 2.16359e-30 1 2
5490 1 2.61865 4.01573 0.02 0 -3.55868e-25 7.36381e-26 1 2
5492 1 2.62003 4.21125 0.02 0 -5.52103e-27 1.89971e-27 1 2
5494 1 2.83125 4.21785 0.02 0 -5.18947e-23 2.82466e-23 1 2
5493 1 2.82625 4.02704 0.02 0 -3.01183e-22 8.93976e-23 1 2
5706 1 1.66302 2.20428 0.02 0 0 0 1 2
5788 1 1.6197 4.40109 0.02 0 0 0 1 2
452 2 2.2 9.6 0 0 0 0 1 5