LAMMPS data file via write_data, version 29 Oct 2020, timestep = 10000

6900 atoms
2 atom types

0.0 20.0 xlo xhi
-10.0 10.0 ylo yhi
-0.02 0.02 zlo zhi

Masses

1 0.04
2 0.04

Atoms # rheo

1 1 1.0004785841632482 1.0 0 9.994680769668955 2.772945510350616 0.0 0 0 0
2 1 1.0004704453282292 1.0 0 9.989951657108001 1.7838023785688688 0.0 0 0 0
3 1 1.0004396120850805 1.0 0 9.998780775566972 -0.03937916032441974 0.0 0 0 0
4 1 1.0004170593940067 1.0 0 9.996113311780508 -1.2285475045585277 0.0 0 0 0
5 1 1.0004026290389605 1.0 0 9.987783281282145 -2.296715487619141 0.0 0 0 0
6 1 1.000401722378915 1.0 0 9.999180529960277 -5.202553552928665 0.0 0 0 0
7 1 1.000471106730292 1.0 0 9.634922222690832 6.746196825235324 0.0 0 0 0
8 1 1.0004723413628183 1.0 0 9.834302257287884 6.74498532595241 0.0 0 0 0
9 1 1.0004657816900835 1.0 0 9.223704402859596 6.763034905271424 0.0 0 0 0
10 1 1.0004696117247769 1.0 0 9.430571587460905 6.74368024577528 0.0 0 0 0
11 1 1.0004635202160237 1.0 0 8.850030220869995 6.743657167649062 0.0 0 0 0
12 1 1.0004670723928448 1.0 0 9.037409530530567 6.724324076575532 0.0 0 0 0
13 1 1.0004562826589554 1.0 0 8.451458892947818 6.766078401622691 0.0 0 0 0
14 1 1.0004620634077268 1.0 0 8.66116146946289 6.732621845191307 0.0 0 0 0
15 1 1.000451125294831 1.0 0 8.02580301252065 6.758781633935559 0.0 0 0 0
16 1 1.0004549560815086 1.0 0 8.236852523224512 6.755707637682934 0.0 0 0 0
17 1 1.000444636896784 1.0 0 7.612036250100979 6.751354636500846 0.0 0 0 0
18 1 1.0004487665202477 1.0 0 7.8214467063192314 6.747055185075834 0.0 0 0 0
19 1 1.0004409402071028 1.0 0 7.405043870192599 6.750102177169559 0.0 0 0 0
20 1 1.0004341191237371 1.0 0 7.006620425768707 6.736999162630923 0.0 0 0 0
21 1 1.0004356630742868 1.0 0 7.199474134986253 6.759757734660472 0.0 0 0 0
22 1 1.000425388199656 1.0 0 6.629766603003349 6.745247365735015 0.0 0 0 0
23 1 1.0004307026471515 1.0 0 6.818182660113369 6.727506740981699 0.0 0 0 0
24 1 1.0004173307082018 1.0 0 6.234185106473252 6.7485682218180925 0.0 0 0 0
25 1 1.0004223271107022 1.0 0 6.436600402414907 6.740407386220868 0.0 0 0 0
26 1 1.0004075958030094 1.0 0 5.8068575794974295 6.754370056997618 0.0 0 0 0
27 1 1.0004112931657643 1.0 0 6.026177410320826 6.7639070731028115 0.0 0 0 0
28 1 1.0004007019974472 1.0 0 5.4126182514760135 6.7339417932987535 0.0 0 0 0
29 1 1.0004044955185025 1.0 0 5.604635100555515 6.7404421122753355 0.0 0 0 0
30 1 1.0003954955706311 1.0 0 5.217938502027768 6.747256723627138 0.0 0 0 0
31 1 1.0003848759966951 1.0 0 4.797193599590364 6.765907817115717 0.0 0 0 0
32 1 1.0003912238619121 1.0 0 5.014216587193481 6.750401831024175 0.0 0 0 0
33 1 1.0003810237169133 1.0 0 4.4024145538663255 6.720960511343878 0.0 0 0 0
34 1 1.0003824585158552 1.0 0 4.593987722763346 6.754102027511565 0.0 0 0 0
35 1 1.0003706559784802 1.0 0 3.9944273915986206 6.755902643767336 0.0 0 0 0
36 1 1.0003727653860601 1.0 0 4.203777005959503 6.766583015156624 0.0 0 0 0
37 1 1.000365020893019 1.0 0 3.5768057455363254 6.735047163946738 0.0 0 0 0
38 1 1.000366122602845 1.0 0 3.7795985915468795 6.762023500626326 0.0 0 0 0
39 1 1.0003591555288225 1.0 0 3.1834871489149905 6.7311612883765495 0.0 0 0 0
40 1 1.000357752336672 1.0 0 3.373136514388624 6.771597681048475 0.0 0 0 0
41 1 1.000355208512365 1.0 0 2.9938857458907564 6.742409018843202 0.0 0 0 0
42 1 1.0003497103924965 1.0 0 2.7994447207412887 6.768963743061313 0.0 0 0 0
43 1 1.0003508309908455 1.0 0 2.6042955603962272 6.731658002430519 0.0 0 0 0
44 1 1.000347266093473 1.0 0 2.411555266964912 6.7459650273913105 0.0 0 0 0
45 1 1.0003462854524985 1.0 0 2.220373012512233 6.7343933715646545 0.0 0 0 0
46 1 1.0003433154408272 1.0 0 2.0232042411975977 6.748744397317211 0.0 0 0 0
47 1 1.0003423870549721 1.0 0 1.819698746005489 6.743536227417552 0.0 0 0 0
48 1 1.0003407100929262 1.0 0 1.62037311267604 6.750760442102192 0.0 0 0 0
49 1 1.0003400868352124 1.0 0 1.4185681654438558 6.747911996942004 0.0 0 0 0
50 1 1.0003371996535624 1.0 0 1.1982995979525761 6.769048344870567 0.0 0 0 0
51 1 1.0003399389208403 1.0 0 0.9937170941467007 6.732863145280696 0.0 0 0 0
52 1 1.0003377842693753 1.0 0 0.7973758700481235 6.754724968234136 0.0 0 0 0
53 1 1.0003388950883387 1.0 0 0.5998915213169871 6.739964595440415 0.0 0 0 0
54 1 1.000339087274651 1.0 0 0.40837349849436017 6.740491231568161 0.0 0 0 0
55 1 1.0003406579280982 1.0 0 0.22265622035813556 6.725382420759604 0.0 0 0 0
56 1 1.0003397127376938 1.0 0 0.03634317260560628 6.750801514666197 0.0 0 0 0
57 1 1.0004725766213733 1.0 0 9.910560509767905 6.561273535971393 0.0 0 0 0
58 1 1.0004714089158147 1.0 0 9.711219799775254 6.561806648817294 0.0 0 0 0
59 1 1.0004712836688476 1.0 0 9.962248989984378 6.368514333181687 0.0 0 0 0
60 1 1.0004701515394916 1.0 0 9.764484826976481 6.372751508857636 0.0 0 0 0
61 1 1.0004708667076088 1.0 0 9.808150093077929 6.176397282255272 0.0 0 0 0
62 1 1.0004695389284561 1.0 0 9.609455428568696 6.185719089282094 0.0 0 0 0
63 1 1.0004700198807068 1.0 0 9.51057768667014 6.563882093316742 0.0 0 0 0
64 1 1.000468419668707 1.0 0 9.307535971412085 6.573032321674205 0.0 0 0 0
65 1 1.0004687350575385 1.0 0 9.563275644658429 6.376659147881157 0.0 0 0 0
66 1 1.0004670966867224 1.0 0 9.36251158315065 6.383177709758297 0.0 0 0 0
67 1 1.0004679869223843 1.0 0 9.409247781168967 6.1887051565319515 0.0 0 0 0
68 1 1.0004653221961484 1.0 0 9.163775721516986 6.370216838179876 0.0 0 0 0
69 1 1.0004661953729532 1.0 0 9.206130033176287 6.185633801879739 0.0 0 0 0
70 1 1.0004660016158804 1.0 0 9.111575343163976 6.5509198871216165 0.0 0 0 0
71 1 1.0004637404893606 1.0 0 8.902606808229683 6.5530990758251795 0.0 0 0 0
72 1 1.000463157817225 1.0 0 8.958666015921809 6.369610293340919 0.0 0 0 0
73 1 1.000464109110772 1.0 0 8.999412051215478 6.182285813913467 0.0 0 0 0
74 1 1.0004605948979604 1.0 0 8.748665701183683 6.369895855521693 0.0 0 0 0
75 1 1.0004617467611614 1.0 0 8.793473331140891 6.1859437720256425 0.0 0 0 0
76 1 1.0004610502278504 1.0 0 8.700712313355131 6.550317960523426 0.0 0 0 0
77 1 1.000459177473859 1.0 0 8.493669103282846 6.584512133751155 0.0 0 0 0
78 1 1.0004563744293828 1.0 0 8.293880733438547 6.575125644684888 0.0 0 0 0
79 1 1.00045763089672 1.0 0 8.52723150188208 6.403393549760523 0.0 0 0 0
80 1 1.0004589873862053 1.0 0 8.582012491128149 6.2198302991841246 0.0 0 0 0
81 1 1.0004547679686637 1.0 0 8.314157966670276 6.39454458075232 0.0 0 0 0
82 1 1.0004561869094877 1.0 0 8.375503768566395 6.215350423903658 0.0 0 0 0
83 1 1.0004535563906445 1.0 0 8.089138360814765 6.583555365236063 0.0 0 0 0
84 1 1.0004513671132893 1.0 0 8.089067729804144 6.406153295397715 0.0 0 0 0
85 1 1.0004530168205457 1.0 0 8.160676460707414 6.234535787057241 0.0 0 0 0
86 1 1.0004497029653123 1.0 0 7.886733147520612 6.565167640433764 0.0 0 0 0
87 1 1.00044784796411 1.0 0 7.870252201138187 6.384275282644943 0.0 0 0 0
88 1 1.0004497479541876 1.0 0 7.947784997348586 6.215822965550872 0.0 0 0 0
89 1 1.0004465272296719 1.0 0 7.682824222718945 6.5759518153743866 0.0 0 0 0
90 1 1.0004427276224719 1.0 0 7.472032303661709 6.572549721859841 0.0 0 0 0
91 1 1.000444182652455 1.0 0 7.655804040592498 6.395912569726182 0.0 0 0 0
92 1 1.0004460459497377 1.0 0 7.72370779860377 6.218445623887541 0.0 0 0 0
93 1 1.000440601523231 1.0 0 7.452230976982244 6.389189726351868 0.0 0 0 0
94 1 1.000442393793193 1.0 0 7.510343375268408 6.205333252767715 0.0 0 0 0
95 1 1.00043885368101 1.0 0 7.258996931314748 6.579756662888255 0.0 0 0 0
96 1 1.0004341769854175 1.0 0 7.0490730301132 6.555466959424475 0.0 0 0 0
97 1 1.0004369094513992 1.0 0 7.253005742825473 6.398047777547459 0.0 0 0 0
98 1 1.0004334398265176 1.0 0 7.062856587026411 6.365813241665216 0.0 0 0 0
99 1 1.0004385079448574 1.0 0 7.296822812418941 6.209384429662871 0.0 0 0 0
100 1 1.0004348014564821 1.0 0 7.0920546271496585 6.176802122663362 0.0 0 0 0
101 1 1.0004259443155956 1.0 0 6.651275328034676 6.5509167556162256 0.0 0 0 0
102 1 1.000429820672614 1.0 0 6.847591246205777 6.54085876516727 0.0 0 0 0
103 1 1.000429740453981 1.0 0 6.868802712231813 6.3522927288766065 0.0 0 0 0
104 1 1.000425745514166 1.0 0 6.670240828966134 6.357282567404816 0.0 0 0 0
105 1 1.0004220904827097 1.0 0 6.4584620914607145 6.553641369065008 0.0 0 0 0
106 1 1.000418334896709 1.0 0 6.26108710551576 6.56790004638883 0.0 0 0 0
107 1 1.0004215618757548 1.0 0 6.467968652519563 6.367280961069431 0.0 0 0 0
108 1 1.0004171311968248 1.0 0 6.2598456607454285 6.387242163820397 0.0 0 0 0
109 1 1.0004224132227246 1.0 0 6.462902448171733 6.184559363989151 0.0 0 0 0
110 1 1.0004179147119976 1.0 0 6.250870571572985 6.206477302463305 0.0 0 0 0
111 1 1.0004144593850925 1.0 0 6.056407571965799 6.5829279162779315 0.0 0 0 0
112 1 1.000410201594714 1.0 0 5.852569887905703 6.580092325448633 0.0 0 0 0
113 1 1.0004125817775036 1.0 0 6.047495447420641 6.405382135465309 0.0 0 0 0
114 1 1.0004080135231448 1.0 0 5.828838751535636 6.405786389778516 0.0 0 0 0
115 1 1.000413430190724 1.0 0 6.041262076907192 6.224069297088888 0.0 0 0 0
116 1 1.0004090206184317 1.0 0 5.832885909305147 6.225790041862779 0.0 0 0 0
117 1 1.000405252488801 1.0 0 5.639913183666969 6.561941259980438 0.0 0 0 0
118 1 1.0004002450225447 1.0 0 5.425842289303919 6.549244095904381 0.0 0 0 0
119 1 1.0004035701715228 1.0 0 5.613188455781367 6.3834305756464556 0.0 0 0 0
120 1 1.0003993879398734 1.0 0 5.410782923210579 6.360365402882149 0.0 0 0 0
121 1 1.0004048462856479 1.0 0 5.627465982204802 6.200450272600501 0.0 0 0 0
122 1 1.0003964990475889 1.0 0 5.224984045883474 6.196568969548267 0.0 0 0 0
123 1 1.0003960358599389 1.0 0 5.213374227917992 6.567915887718288 0.0 0 0 0
124 1 1.000391821264592 1.0 0 5.0081172896594515 6.565355678327119 0.0 0 0 0
125 1 1.0003881331705535 1.0 0 4.809446693526304 6.580952168648763 0.0 0 0 0
126 1 1.0003950191771924 1.0 0 5.212345647769009 6.386525064578568 0.0 0 0 0
127 1 1.0003910062810875 1.0 0 5.014662840683192 6.374798295121941 0.0 0 0 0
128 1 1.0003868814632417 1.0 0 4.817189637347938 6.394944458798763 0.0 0 0 0
129 1 1.0003924254937646 1.0 0 5.023146841682558 6.181893545830661 0.0 0 0 0
130 1 1.0003882034303866 1.0 0 4.821662605662165 6.201707228344634 0.0 0 0 0
131 1 1.0003837239144537 1.0 0 4.60718778278201 6.566221847871769 0.0 0 0 0
132 1 1.0003790162580457 1.0 0 4.405315209375907 6.5391236493215485 0.0 0 0 0
133 1 1.0003829634090606 1.0 0 4.619177904327918 6.37930710217318 0.0 0 0 0
134 1 1.0003791030873304 1.0 0 4.417291738974804 6.354059781616518 0.0 0 0 0
135 1 1.0003841636199045 1.0 0 4.616778201682165 6.190461689027218 0.0 0 0 0
136 1 1.0003801101377627 1.0 0 4.402530798066811 6.172123262884062 0.0 0 0 0
137 1 1.000375909704526 1.0 0 4.201883960308614 6.5810224402139585 0.0 0 0 0
138 1 1.0003722020192578 1.0 0 3.992605624717865 6.578416349954432 0.0 0 0 0
139 1 1.000374819360674 1.0 0 4.211966897633734 6.399937636897844 0.0 0 0 0
140 1 1.0003709986615903 1.0 0 4.001334318931309 6.402171574221728 0.0 0 0 0
141 1 1.0003755838174635 1.0 0 4.181771657684807 6.22069694749549 0.0 0 0 0
142 1 1.0003716778967757 1.0 0 3.9673486420584716 6.221400191009952 0.0 0 0 0
143 1 1.0003643269614098 1.0 0 3.5644858003099067 6.562292300792253 0.0 0 0 0
144 1 1.0003685404986518 1.0 0 3.781940838536577 6.580233360766132 0.0 0 0 0
145 1 1.0003673622072105 1.0 0 3.7937137866150206 6.399029621669464 0.0 0 0 0
146 1 1.000364090267405 1.0 0 3.5951693156520736 6.384312976995235 0.0 0 0 0
147 1 1.0003682170911108 1.0 0 3.763932536796571 6.208485728731109 0.0 0 0 0
148 1 1.000365003778008 1.0 0 3.5632640328391187 6.191806310725865 0.0 0 0 0
149 1 1.0003611124618872 1.0 0 3.371786637210085 6.5622028518183955 0.0 0 0 0
150 1 1.000358066419879 1.0 0 3.1837638571995583 6.54325974135711 0.0 0 0 0
151 1 1.0003611485737491 1.0 0 3.3994455790538773 6.35877240849477 0.0 0 0 0
152 1 1.000358379205631 1.0 0 3.207563912668509 6.349897718217784 0.0 0 0 0
153 1 1.0003554427354138 1.0 0 2.990930334018198 6.55411288933162 0.0 0 0 0
154 1 1.0003531218843857 1.0 0 2.800153081480145 6.570819071215617 0.0 0 0 0
155 1 1.0003555236310484 1.0 0 3.012851291556198 6.361536280558831 0.0 0 0 0
156 1 1.0003528855312738 1.0 0 2.819885335139305 6.371451979848835 0.0 0 0 0
157 1 1.0003508072981124 1.0 0 2.633673982558927 6.349972282458756 0.0 0 0 0
158 1 1.000350469095232 1.0 0 2.610560682302392 6.5462659542091926 0.0 0 0 0
159 1 1.0003483933924846 1.0 0 2.4202548504366677 6.549502148107218 0.0 0 0 0
160 1 1.0003463705996178 1.0 0 2.234087974956054 6.540695702367835 0.0 0 0 0
161 1 1.0003486805369908 1.0 0 2.4441140172670446 6.351291599407866 0.0 0 0 0
162 1 1.0003469108208571 1.0 0 2.2568312559684416 6.337411768781063 0.0 0 0 0
163 1 1.000345017219743 1.0 0 2.0456126318947034 6.561382030154073 0.0 0 0 0
164 1 1.0003434266724578 1.0 0 1.858695589670478 6.551781478018623 0.0 0 0 0
165 1 1.000344984698418 1.0 0 2.0679733975469548 6.367673802395143 0.0 0 0 0
166 1 1.0003436838455648 1.0 0 1.8810868905068332 6.346480877528513 0.0 0 0 0
167 1 1.0003423490712844 1.0 0 1.6658265141549673 6.562263312698596 0.0 0 0 0
168 1 1.0003414142975942 1.0 0 1.4637484364958897 6.568649181946556 0.0 0 0 0
169 1 1.0003422435924283 1.0 0 1.6919625890728707 6.368597382006339 0.0 0 0 0
170 1 1.0003410087335487 1.0 0 1.4929451734092642 6.387258064280436 0.0 0 0 0
171 1 1.0003425949136262 1.0 0 1.503315274349381 6.198167211824096 0.0 0 0 0
172 1 1.0003409465707447 1.0 0 1.2589405955389117 6.588094092135535 0.0 0 0 0
173 1 1.0003399929014478 1.0 0 1.0583905849656174 6.565029476122551 0.0 0 0 0
174 1 1.0003400052787816 1.0 0 1.2828735068237829 6.405698056830297 0.0 0 0 0
175 1 1.000339612377348 1.0 0 1.0705517189441724 6.38722855605959 0.0 0 0 0
176 1 1.0003415640396789 1.0 0 1.2992673839981441 6.219504731614261 0.0 0 0 0
177 1 1.0003411670857276 1.0 0 1.0978663297262394 6.202738597116428 0.0 0 0 0
178 1 1.000340784825157 1.0 0 0.88607522742858 6.214843497743848 0.0 0 0 0
179 1 1.0003398202470775 1.0 0 0.8419543502304769 6.57064811094014 0.0 0 0 0
180 1 1.000339623748989 1.0 0 0.6423043605056319 6.556384782526862 0.0 0 0 0
181 1 1.0003393732086563 1.0 0 0.8530509954906539 6.393011235257617 0.0 0 0 0
182 1 1.0003396459116105 1.0 0 0.644319849954772 6.367439447910076 0.0 0 0 0
183 1 1.0003410916567097 1.0 0 0.6861987108190204 6.179055723005771 0.0 0 0 0
184 1 1.0003398645919754 1.0 0 0.4470704816003678 6.550203668878272 0.0 0 0 0
185 1 1.0003400654835064 1.0 0 0.4396633204462091 6.359872500992947 0.0 0 0 0
186 1 1.000341395829852 1.0 0 0.48504726211753574 6.173365651150441 0.0 0 0 0
187 1 1.000340258881314 1.0 0 0.25323575673935816 6.536199766941926 0.0 0 0 0
188 1 1.000341182936342 1.0 0 0.060495956171847914 6.550464373211757 0.0 0 0 0
189 1 1.0003407612156534 1.0 0 0.24482452033009247 6.340944202432413 0.0 0 0 0
190 1 1.0003414506652255 1.0 0 0.05949857072219257 6.345605099089935 0.0 0 0 0
191 1 1.0004714948028168 1.0 0 9.827861634118573 5.971188094312166 0.0 0 0 0
192 1 1.0004719562752244 1.0 0 9.824229769932893 5.76104736233922 0.0 0 0 0
193 1 1.0004702347099417 1.0 0 9.63603344635056 5.990073215702064 0.0 0 0 0
194 1 1.0004706812461734 1.0 0 9.635364652268793 5.789668776470098 0.0 0 0 0
195 1 1.0004687727113726 1.0 0 9.441055531472824 5.989327584932733 0.0 0 0 0
196 1 1.0004692434015472 1.0 0 9.44360769137956 5.784983406933164 0.0 0 0 0
197 1 1.0004670438952479 1.0 0 9.243602504012634 5.997195606872179 0.0 0 0 0
198 1 1.0004675223540411 1.0 0 9.249899052665281 5.801094594851296 0.0 0 0 0
199 1 1.0004650456114306 1.0 0 9.03998375527341 5.994725902147706 0.0 0 0 0
200 1 1.0004655564622755 1.0 0 9.050216634383645 5.803506746651454 0.0 0 0 0
201 1 1.000462742957861 1.0 0 8.83201364153924 5.998178193374011 0.0 0 0 0
202 1 1.0004633013108777 1.0 0 8.844535641939126 5.808631841095028 0.0 0 0 0
203 1 1.0004601150308285 1.0 0 8.622255373277854 6.0298431623180555 0.0 0 0 0
204 1 1.0004607610449507 1.0 0 8.638303339178261 5.836583328503647 0.0 0 0 0
205 1 1.000457323716493 1.0 0 8.412544600384843 6.031016030946914 0.0 0 0 0
206 1 1.0004580310870914 1.0 0 8.43066468798255 5.845341457901746 0.0 0 0 0
207 1 1.0004541815983494 1.0 0 8.197890801811985 6.051449360296908 0.0 0 0 0
208 1 1.000454976378252 1.0 0 8.217798566701862 5.865145575286536 0.0 0 0 0
209 1 1.0004509975296259 1.0 0 7.986780689468644 6.0372937571006755 0.0 0 0 0
210 1 1.000451727527548 1.0 0 8.002140953577008 5.856191470504046 0.0 0 0 0
211 1 1.0004475444755083 1.0 0 7.772819236064489 6.0389316113371825 0.0 0 0 0
212 1 1.0004441334963137 1.0 0 7.568300397448739 6.018895057226917 0.0 0 0 0
213 1 1.0004482782742743 1.0 0 7.7858232630304585 5.854484690514383 0.0 0 0 0
214 1 1.0004447024103678 1.0 0 7.568979140192667 5.828724372349844 0.0 0 0 0
215 1 1.0004404847742183 1.0 0 7.364151306142658 6.023793981497899 0.0 0 0 0
216 1 1.0004368116670408 1.0 0 7.161410551010553 6.000107499084959 0.0 0 0 0
217 1 1.000440948613316 1.0 0 7.356190231437628 5.828922832353377 0.0 0 0 0
218 1 1.0004368713952965 1.0 0 7.133668331941887 5.819779067351647 0.0 0 0 0
219 1 1.000430818273898 1.0 0 6.880235382727534 6.1652613371440985 0.0 0 0 0
220 1 1.000426717780597 1.0 0 6.671975834465624 6.166262242145801 0.0 0 0 0
221 1 1.000432799600821 1.0 0 6.946994587492596 5.9899095359870955 0.0 0 0 0
222 1 1.0004283729135732 1.0 0 6.718641178302823 5.984736982934048 0.0 0 0 0
223 1 1.0004322748240488 1.0 0 6.892925489225912 5.815419206730566 0.0 0 0 0
224 1 1.0004279193139274 1.0 0 6.6692389173832956 5.807079844258372 0.0 0 0 0
225 1 1.0004236706521221 1.0 0 6.487091583821873 6.005382260996975 0.0 0 0 0
226 1 1.0004189523434808 1.0 0 6.259917494712306 6.025831994470506 0.0 0 0 0
227 1 1.000423706680215 1.0 0 6.460533321627975 5.826442713978897 0.0 0 0 0
228 1 1.0004194580618622 1.0 0 6.252916430532601 5.842554109922724 0.0 0 0 0
229 1 1.0004143910590402 1.0 0 6.04274506499997 6.038252537333327 0.0 0 0 0
230 1 1.0004099773001267 1.0 0 5.833153281138351 6.039939351186445 0.0 0 0 0
231 1 1.000415234786255 1.0 0 6.047714488897444 5.84738682943238 0.0 0 0 0
232 1 1.000410946872163 1.0 0 5.841688226874249 5.850106635973985 0.0 0 0 0
233 1 1.0004008442075287 1.0 0 5.425534569574833 6.164988029666224 0.0 0 0 0
234 1 1.0004057295814512 1.0 0 5.624505105111256 6.014456731327119 0.0 0 0 0
235 1 1.0004018069328346 1.0 0 5.423109824862705 5.966643648223471 0.0 0 0 0
236 1 1.000406751737466 1.0 0 5.635793005363117 5.82690049549017 0.0 0 0 0
237 1 1.0004029900742173 1.0 0 5.440914956950754 5.769990948440283 0.0 0 0 0
238 1 1.0003975572298514 1.0 0 5.2241186498624 6.003567204539436 0.0 0 0 0
239 1 1.000398632350145 1.0 0 5.23351173912221 5.806647727464291 0.0 0 0 0
240 1 1.000393495006441 1.0 0 5.022212696186351 5.990460903080284 0.0 0 0 0
241 1 1.0003944214153533 1.0 0 5.02407818142791 5.800880183044576 0.0 0 0 0
242 1 1.000389272408601 1.0 0 4.817957256652394 6.009123160615034 0.0 0 0 0
243 1 1.0003901820124106 1.0 0 4.815235910209956 5.815085546011344 0.0 0 0 0
244 1 1.0003852118889591 1.0 0 4.6124382369614 6.002637610581241 0.0 0 0 0
245 1 1.000381387068799 1.0 0 4.408608365735435 5.982563376187583 0.0 0 0 0
246 1 1.0003861134011782 1.0 0 4.607547306552972 5.810963175653249 0.0 0 0 0
247 1 1.0003823380516152 1.0 0 4.40364170728043 5.790912739752995 0.0 0 0 0
248 1 1.0003774102561411 1.0 0 4.211652195820634 6.034939503261601 0.0 0 0 0
249 1 1.0003737467234188 1.0 0 4.010358957007923 6.037256423968281 0.0 0 0 0
250 1 1.000378347436753 1.0 0 4.200925140780753 5.838311331588472 0.0 0 0 0
251 1 1.000374672360133 1.0 0 3.9979735783298986 5.845363835018789 0.0 0 0 0
252 1 1.0003703146431406 1.0 0 3.807398008287058 6.020683126237765 0.0 0 0 0
253 1 1.0003670946821093 1.0 0 3.606288188003537 6.002630419207474 0.0 0 0 0
254 1 1.0003712957709066 1.0 0 3.7957626441491303 5.828973761197048 0.0 0 0 0
255 1 1.0003682059830896 1.0 0 3.597259524327414 5.8037542661087445 0.0 0 0 0
256 1 1.0003621816098611 1.0 0 3.367184319570101 6.1592903586934735 0.0 0 0 0
257 1 1.0003595444499223 1.0 0 3.179894891254333 6.143639100814019 0.0 0 0 0
258 1 1.0003642585556896 1.0 0 3.4106885760273054 5.966159976546224 0.0 0 0 0
259 1 1.0003616097187122 1.0 0 3.217497814732153 5.934637183210995 0.0 0 0 0
260 1 1.0003654716952266 1.0 0 3.4039435270866263 5.763632610179974 0.0 0 0 0
261 1 1.0003568182715386 1.0 0 2.995952478738146 6.165460864635749 0.0 0 0 0
262 1 1.0003546000238845 1.0 0 2.8202243432979426 6.156727713371 0.0 0 0 0
263 1 1.000352721739187 1.0 0 2.6488791836419376 6.13104775802745 0.0 0 0 0
264 1 1.0003587297256877 1.0 0 3.0258319548123174 5.964583422336054 0.0 0 0 0
265 1 1.0003566687059038 1.0 0 2.844007690794173 5.922582063025721 0.0 0 0 0
266 1 1.0003544891618814 1.0 0 2.6610726886138436 5.917283576563181 0.0 0 0 0
267 1 1.0003600610227064 1.0 0 3.017525252977006 5.755707752015069 0.0 0 0 0
268 1 1.0003504958589424 1.0 0 2.467744319999795 6.155789900847064 0.0 0 0 0
269 1 1.0003487950913748 1.0 0 2.279283794295741 6.131482930299513 0.0 0 0 0
270 1 1.0003521613411215 1.0 0 2.4761483146602323 5.953829738401186 0.0 0 0 0
271 1 1.000350504227272 1.0 0 2.286153741018132 5.921324370597291 0.0 0 0 0
272 1 1.000353341709284 1.0 0 2.446315839364937 5.752112934956621 0.0 0 0 0
273 1 1.0003467577497105 1.0 0 2.0870358939564935 6.168760158852463 0.0 0 0 0
274 1 1.0003454423826204 1.0 0 1.894548497841086 6.143788648606805 0.0 0 0 0
275 1 1.000348525826751 1.0 0 2.1024716455524497 5.965371044678865 0.0 0 0 0
276 1 1.0003471811889708 1.0 0 1.9121206169371858 5.944352677369598 0.0 0 0 0
277 1 1.0003498582119548 1.0 0 2.0678619181459346 5.753811240618486 0.0 0 0 0
278 1 1.0003484484394343 1.0 0 1.874615945284034 5.747866541725374 0.0 0 0 0
279 1 1.0003439339001357 1.0 0 1.7005943967596018 6.168583375771859 0.0 0 0 0
280 1 1.0003457133359313 1.0 0 1.7174486697853126 5.965080979335207 0.0 0 0 0
281 1 1.0003443854838572 1.0 0 1.525207539337408 5.999229411938772 0.0 0 0 0
282 1 1.0003470920478938 1.0 0 1.6809737005193681 5.765208633375623 0.0 0 0 0
283 1 1.0003458666494516 1.0 0 1.4924089797274473 5.797626033885362 0.0 0 0 0
284 1 1.0003432939243915 1.0 0 1.3306575777601102 6.029052305499308 0.0 0 0 0
285 1 1.000344849452286 1.0 0 1.3071723670620465 5.830106247240285 0.0 0 0 0
286 1 1.0003429526582557 1.0 0 1.1361040532354891 6.0016950492360674 0.0 0 0 0
287 1 1.0003448057674875 1.0 0 1.129224902782508 5.775623368651114 0.0 0 0 0
288 1 1.000342351100552 1.0 0 0.9390725817167177 6.033724714249648 0.0 0 0 0
289 1 1.0003439909728484 1.0 0 0.9516840437929919 5.837631099292564 0.0 0 0 0
290 1 1.000342629847934 1.0 0 0.7403411243614235 5.9905277761265845 0.0 0 0 0
291 1 1.0003442639313638 1.0 0 0.7623922939157552 5.793921117874055 0.0 0 0 0
292 1 1.0003428671475154 1.0 0 0.5358199196194183 5.984849199128002 0.0 0 0 0
293 1 1.0003444477248276 1.0 0 0.5597337140020048 5.793325009668849 0.0 0 0 0
294 1 1.0003420668388643 1.0 0 0.28230450315793054 6.153100779564183 0.0 0 0 0
295 1 1.000342934398171 1.0 0 0.08451228866015863 6.137979419680537 0.0 0 0 0
296 1 1.0003434283253991 1.0 0 0.3311660983814705 5.97152323971844 0.0 0 0 0
297 1 1.0003449761294319 1.0 0 0.3501401415307722 5.786098779784986 0.0 0 0 0
298 1 1.0003460012605767 1.0 0 0.14636639746172517 5.750408567935297 0.0 0 0 0
299 1 1.0003443998198827 1.0 0 0.12685467617415053 5.942071398379437 0.0 0 0 0
300 1 1.0004725776341865 1.0 0 9.8319379465728 5.5569161249868815 0.0 0 0 0
301 1 1.000473273466592 1.0 0 9.836926467759586 5.353597047100954 0.0 0 0 0
302 1 1.000471200154142 1.0 0 9.63305305084894 5.587103229410762 0.0 0 0 0
303 1 1.000471926245412 1.0 0 9.645765814619434 5.384987658396671 0.0 0 0 0
304 1 1.0004696919540865 1.0 0 9.434199957727438 5.582502401348388 0.0 0 0 0
305 1 1.0004704589445563 1.0 0 9.452881495834118 5.379976286985297 0.0 0 0 0
306 1 1.0004678866470835 1.0 0 9.236007534387943 5.6015791323298565 0.0 0 0 0
307 1 1.0004687077249625 1.0 0 9.258870225721438 5.397006928757235 0.0 0 0 0
308 1 1.0004658294437345 1.0 0 9.03305366442105 5.611223141859704 0.0 0 0 0
309 1 1.0004667089589743 1.0 0 9.062448987545364 5.416395787318423 0.0 0 0 0
310 1 1.000463551561333 1.0 0 8.828697575574905 5.61764379989517 0.0 0 0 0
311 1 1.0004644195527594 1.0 0 8.85634424194414 5.425765315972795 0.0 0 0 0
312 1 1.000461066204598 1.0 0 8.628032684686449 5.640862748885647 0.0 0 0 0
313 1 1.0004618145212212 1.0 0 8.644624507952743 5.444053689363796 0.0 0 0 0
314 1 1.0004583585567732 1.0 0 8.42426244843367 5.657349641215561 0.0 0 0 0
315 1 1.0004589774354644 1.0 0 8.432926433602432 5.467449418974052 0.0 0 0 0
316 1 1.0004554060576984 1.0 0 8.217450065399344 5.6753025886626425 0.0 0 0 0
317 1 1.0004560055601595 1.0 0 8.224444429922737 5.480196575155779 0.0 0 0 0
318 1 1.000452217055267 1.0 0 8.005244189615002 5.673389988022333 0.0 0 0 0
319 1 1.0004529260149044 1.0 0 8.020375248023482 5.485038924317267 0.0 0 0 0
320 1 1.0004487103739084 1.0 0 7.785115740736998 5.669786092127545 0.0 0 0 0
321 1 1.00044522143408 1.0 0 7.572440809657255 5.640686841443669 0.0 0 0 0
322 1 1.0004497433392112 1.0 0 7.819366723644249 5.481434849067346 0.0 0 0 0
323 1 1.0004464582494894 1.0 0 7.617674468382396 5.457018429149972 0.0 0 0 0
324 1 1.000442882827975 1.0 0 7.407767927843664 5.4425548241421495 0.0 0 0 0
325 1 1.0004415879160584 1.0 0 7.363389289637041 5.635424616656221 0.0 0 0 0
326 1 1.0004377012270602 1.0 0 7.150936553835846 5.6387346315103555 0.0 0 0 0
327 1 1.000439025115291 1.0 0 7.194885515723889 5.455086117324872 0.0 0 0 0
328 1 1.0004349686644831 1.0 0 6.975617705675006 5.449011046348731 0.0 0 0 0
329 1 1.0004337830362737 1.0 0 6.943537142491718 5.636676772235137 0.0 0 0 0
330 1 1.0004296372329666 1.0 0 6.729024864746962 5.6304647418712435 0.0 0 0 0
331 1 1.0004308696422544 1.0 0 6.759830851900625 5.445495744912048 0.0 0 0 0
332 1 1.0004266529175598 1.0 0 6.54668590486878 5.461164270203586 0.0 0 0 0
333 1 1.000425014882787 1.0 0 6.497819403913835 5.642400749047756 0.0 0 0 0
334 1 1.0004207121078483 1.0 0 6.285268683706927 5.651789811755768 0.0 0 0 0
335 1 1.000422503451956 1.0 0 6.338202236635988 5.459767313062495 0.0 0 0 0
336 1 1.000418518694931 1.0 0 6.1383094177409845 5.449373450401524 0.0 0 0 0
337 1 1.0004166729103983 1.0 0 6.085716976275908 5.649018763710992 0.0 0 0 0
338 1 1.000412624202329 1.0 0 5.888893660308261 5.656565951405462 0.0 0 0 0
339 1 1.0004144969341056 1.0 0 5.940753305054869 5.455356399950907 0.0 0 0 0
340 1 1.000410573730533 1.0 0 5.7463108633133855 5.448767846870346 0.0 0 0 0
341 1 1.0004086262564043 1.0 0 5.691380123726995 5.642043578565113 0.0 0 0 0
342 1 1.0004050259832504 1.0 0 5.501475238262047 5.57928448366299 0.0 0 0 0
343 1 1.0004069966296216 1.0 0 5.556756866359496 5.38986855219609 0.0 0 0 0
344 1 1.0004006372791556 1.0 0 5.290350669140996 5.6090671319787475 0.0 0 0 0
345 1 1.0004026509817128 1.0 0 5.3457700498580545 5.414498537993852 0.0 0 0 0
346 1 1.000396476433355 1.0 0 5.084169576440499 5.615089644974898 0.0 0 0 0
347 1 1.0003923473580334 1.0 0 4.877134930294444 5.620409825201433 0.0 0 0 0
348 1 1.000398359355904 1.0 0 5.133014001747674 5.42827427067761 0.0 0 0 0
349 1 1.0003941847251194 1.0 0 4.9190952685003335 5.425726081542516 0.0 0 0 0
350 1 1.0003883195695362 1.0 0 4.672053070695793 5.62617595466855 0.0 0 0 0
351 1 1.000384487610715 1.0 0 4.4640641012439675 5.6058759309348165 0.0 0 0 0
352 1 1.000389943528354 1.0 0 4.701994508947445 5.436550578744185 0.0 0 0 0
353 1 1.0003859880898913 1.0 0 4.486559055376424 5.418149585687828 0.0 0 0 0
354 1 1.0003802943014812 1.0 0 4.245679394685571 5.6385448075510025 0.0 0 0 0
355 1 1.0003764658213676 1.0 0 4.0360374837260595 5.65524516264671 0.0 0 0 0
356 1 1.0003820469060731 1.0 0 4.278438207636464 5.441373512193865 0.0 0 0 0
357 1 1.0003782648659765 1.0 0 4.072829776530945 5.464016905210867 0.0 0 0 0
358 1 1.0003729446400873 1.0 0 3.8259413881291393 5.642209256505538 0.0 0 0 0
359 1 1.000369944739179 1.0 0 3.6272839115351894 5.604548153445075 0.0 0 0 0
360 1 1.000374769949716 1.0 0 3.8660895469415477 5.458123987636105 0.0 0 0 0
361 1 1.0003718434020812 1.0 0 3.666499397015859 5.408005844497167 0.0 0 0 0
362 1 1.000362879046426 1.0 0 3.2106548557485883 5.730359878787736 0.0 0 0 0
363 1 1.0003671955113036 1.0 0 3.4330588499991985 5.56675333082473 0.0 0 0 0
364 1 1.000364592538763 1.0 0 3.2370489599830554 5.530720184246092 0.0 0 0 0
365 1 1.0003689800712439 1.0 0 3.4661086987260386 5.374041642628626 0.0 0 0 0
366 1 1.0003663391472204 1.0 0 3.265410807913608 5.33591765547209 0.0 0 0 0
367 1 1.0003635314608712 1.0 0 3.062881466556263 5.34653307393964 0.0 0 0 0
368 1 1.0003579050896516 1.0 0 2.826233011736116 5.7129624814557625 0.0 0 0 0
369 1 1.000361752997697 1.0 0 3.037582159145235 5.5491117860667725 0.0 0 0 0
370 1 1.0003595180165998 1.0 0 2.8407053803872686 5.51435343905238 0.0 0 0 0
371 1 1.0003557018481173 1.0 0 2.633716578492134 5.70533507955845 0.0 0 0 0
372 1 1.0003572680495063 1.0 0 2.6387972982846324 5.5022579108573755 0.0 0 0 0
373 1 1.0003517578346985 1.0 0 2.2533955158711656 5.71371712581843 0.0 0 0 0
374 1 1.0003548343103095 1.0 0 2.4406267717727976 5.5472323307370335 0.0 0 0 0
375 1 1.0003532950211365 1.0 0 2.2464088367580075 5.5099064187124895 0.0 0 0 0
376 1 1.00035659148922 1.0 0 2.4568343886463637 5.344928951533158 0.0 0 0 0
377 1 1.0003515260720366 1.0 0 2.058518298843628 5.534770459060172 0.0 0 0 0
378 1 1.0003500757969355 1.0 0 1.8724463773416846 5.545953228392548 0.0 0 0 0
379 1 1.0003518605934336 1.0 0 1.8704293131893797 5.338474186410969 0.0 0 0 0
380 1 1.0003488077690683 1.0 0 1.6838651376354574 5.558099533626964 0.0 0 0 0
381 1 1.0003476392027257 1.0 0 1.4991246213102174 5.586397373020868 0.0 0 0 0
382 1 1.0003505662026022 1.0 0 1.6777233870668842 5.3543714339387805 0.0 0 0 0
383 1 1.0003495453683762 1.0 0 1.4916496217113258 5.36920196788217 0.0 0 0 0
384 1 1.0003467407491722 1.0 0 1.3169897538086839 5.609467541309928 0.0 0 0 0
385 1 1.0003487897115027 1.0 0 1.310705967035771 5.382209321572755 0.0 0 0 0
386 1 1.0003466344101049 1.0 0 1.1347851334279733 5.565670114704031 0.0 0 0 0
387 1 1.0003484713165876 1.0 0 1.1247459785702625 5.366672264745392 0.0 0 0 0
388 1 1.0003458990051222 1.0 0 0.9537696211491665 5.614970277638817 0.0 0 0 0