LAMMPS data file via write_data, version 29 Oct 2020, timestep = 10000

6900 atoms
2 atom types

0.0 20.0 xlo xhi
-10.0 10.0 ylo yhi
-0.02 0.02 zlo zhi

Masses

1 0.04
2 0.04

Atoms # rheo

1 1 1.0003322620317154 1.0 0 6.524949458209928 -0.27958105994614196 0.0 0 0 0
2 1 1.0003294151746098 1.0 0 6.280089971562881 -0.08035973874787258 0.0 0 0 0
3 1 1.0003300521145533 1.0 0 6.479480303803052 -0.0736052603805824 0.0 0 0 0
4 1 1.00033155169825 1.0 0 6.3306326231002 -0.27918803394482017 0.0 0 0 0
5 1 1.0003300257403787 1.0 0 5.906381109253854 -0.17823563591625088 0.0 0 0 0
6 1 1.000329939624408 1.0 0 6.1028737416219885 -0.16897983754924362 0.0 0 0 0
7 1 1.0003322290782661 1.0 0 5.956314654517392 -0.37618209360391563 0.0 0 0 0
8 1 1.0003322706983204 1.0 0 6.1543154091462755 -0.3723843703908528 0.0 0 0 0
9 1 1.0003328210913922 1.0 0 5.759336917092198 -0.4026005400265717 0.0 0 0 0
10 1 1.0003306538286159 1.0 0 5.711412354611748 -0.2055372669080946 0.0 0 0 0
11 1 1.0003288775152344 1.0 0 5.663216908827268 -0.006422498649618045 0.0 0 0 0
12 1 1.0003300025630402 1.0 0 5.470038966916466 -0.05006120639553267 0.0 0 0 0
13 1 1.00033175128896 1.0 0 5.517835088338511 -0.24571004641233557 0.0 0 0 0
14 1 1.000332823950492 1.0 0 5.316920507380728 -0.24970204234259458 0.0 0 0 0
15 1 1.0003310739585016 1.0 0 5.273230913059262 -0.04788930425577881 0.0 0 0 0
16 1 1.0003330871325624 1.0 0 5.090786776530088 -0.12352525195687586 0.0 0 0 0
17 1 1.0003374327628387 1.0 0 4.940216616946693 -0.3956969717932722 0.0 0 0 0
18 1 1.0003354375571039 1.0 0 4.905332361199348 -0.19553507986520777 0.0 0 0 0
19 1 1.0003349200370213 1.0 0 5.128896408893147 -0.32092710288721327 0.0 0 0 0
20 1 1.000336142555348 1.0 0 4.705167595158078 -0.06312031145126974 0.0 0 0 0
21 1 1.000338140078946 1.0 0 4.719873298936069 -0.26864651884933793 0.0 0 0 0
22 1 1.0003387673669342 1.0 0 4.514733077883994 -0.10464320177542308 0.0 0 0 0
23 1 1.0003408834804601 1.0 0 4.533136496136551 -0.3178330520772002 0.0 0 0 0
24 1 1.0003439857239942 1.0 0 4.351684518888414 -0.3787718526009398 0.0 0 0 0
25 1 1.0003418734188596 1.0 0 4.33124318460108 -0.17333693509652381 0.0 0 0 0
26 1 1.0003445309260108 1.0 0 4.141528506056138 -0.1629034590579618 0.0 0 0 0
27 1 1.0003468328067295 1.0 0 4.165469440291132 -0.39204034561197526 0.0 0 0 0
28 1 1.000349170366797 1.0 0 3.9810049370117593 -0.3460027555526306 0.0 0 0 0
29 1 1.0003474285724498 1.0 0 3.9496861138423367 -0.14283177499271968 0.0 0 0 0
30 1 1.0003523932511458 1.0 0 3.787297280937194 -0.33757262955009476 0.0 0 0 0
31 1 1.0003544301230634 1.0 0 3.559771557155877 -0.13357450844290011 0.0 0 0 0
32 1 1.0003559676389016 1.0 0 3.592943021521643 -0.3371234058477313 0.0 0 0 0
33 1 1.000350752828849 1.0 0 3.753626991645139 -0.13059088441122904 0.0 0 0 0
34 1 1.000359682659957 1.0 0 3.396403466557115 -0.3248153118183314 0.0 0 0 0
35 1 1.0003636930859612 1.0 0 3.196963564862428 -0.31282169105161234 0.0 0 0 0
36 1 1.0003625048570264 1.0 0 3.1609912304309935 -0.1156513501258286 0.0 0 0 0
37 1 1.0003583013312691 1.0 0 3.3625160843653155 -0.123971705198751 0.0 0 0 0
38 1 1.0003678589963692 1.0 0 2.99921184714653 -0.29893509959916703 0.0 0 0 0
39 1 1.0003667501491802 1.0 0 2.9610969461037118 -0.09297413033249322 0.0 0 0 0
40 1 1.0003723235611912 1.0 0 2.80626959181156 -0.3042423929030023 0.0 0 0 0
41 1 1.0003713491512514 1.0 0 2.7647287121059407 -0.09651637450909939 0.0 0 0 0
42 1 1.0003769441238872 1.0 0 2.6101065393747125 -0.2991135981550448 0.0 0 0 0
43 1 1.0003761285221338 1.0 0 2.5678443452998296 -0.09643756017884508 0.0 0 0 0
44 1 1.0003816282270006 1.0 0 2.4135852053427036 -0.28380382071559623 0.0 0 0 0
45 1 1.000380906975469 1.0 0 2.3698861061005516 -0.07246236326419761 0.0 0 0 0
46 1 1.0003865237924168 1.0 0 2.219106490731787 -0.28014271998445167 0.0 0 0 0
47 1 1.0003860162945477 1.0 0 2.1743194673888873 -0.07957210888849026 0.0 0 0 0
48 1 1.000391852486631 1.0 0 2.022833037795014 -0.3052150213837977 0.0 0 0 0
49 1 1.0003973809499411 1.0 0 1.821905389257078 -0.3279891060090959 0.0 0 0 0
50 1 1.0003968316700704 1.0 0 1.7835602362099026 -0.12907016434055024 0.0 0 0 0
51 1 1.000391415765338 1.0 0 1.9793030235362157 -0.11091843381178913 0.0 0 0 0
52 1 1.0004079238331565 1.0 0 1.3853247782233045 -0.14685952533290117 0.0 0 0 0
53 1 1.0004024045613369 1.0 0 1.5885698397063048 -0.16104303641440745 0.0 0 0 0
54 1 1.000403103734077 1.0 0 1.6166642625109284 -0.3512845628555907 0.0 0 0 0
55 1 1.000408815909669 1.0 0 1.4029850300415418 -0.33838159048228444 0.0 0 0 0
56 1 1.000413376064756 1.0 0 1.1824142261269581 -0.11790212134888153 0.0 0 0 0
57 1 1.0004143472538392 1.0 0 1.196223689427335 -0.31849072973499054 0.0 0 0 0
58 1 1.0004189356347286 1.0 0 0.9806847055523339 -0.10563256612871205 0.0 0 0 0
59 1 1.0004197538490949 1.0 0 0.9971059980702524 -0.3052523416502184 0.0 0 0 0
60 1 1.0004251297500784 1.0 0 0.7991745580120857 -0.291979519196778 0.0 0 0 0
61 1 1.0004244932214021 1.0 0 0.7785147139275174 -0.08967090874991404 0.0 0 0 0
62 1 1.000430317283597 1.0 0 0.6037059830518798 -0.2624035919742997 0.0 0 0 0
63 1 1.0004297874682753 1.0 0 0.5810341169717707 -0.051231324677100065 0.0 0 0 0
64 1 1.0004354479509323 1.0 0 0.4098690475346166 -0.2326123237305788 0.0 0 0 0
65 1 1.0004351424214164 1.0 0 0.3831092057899301 -0.02431339002464511 0.0 0 0 0
66 1 1.000440560096063 1.0 0 0.2122265455200132 -0.18325574113309326 0.0 0 0 0
67 1 1.0004459822061273 1.0 0 0.0019208919227720299 -0.14000086462127728 0.0 0 0 0
68 1 1.000442223562064 1.0 0 0.18572295531677105 -0.38040653774895483 0.0 0 0 0
69 1 1.000334888070852 1.0 0 6.5363703018421635 -0.4972786720543136 0.0 0 0 0
70 1 1.0003379416141052 1.0 0 6.5737509105019205 -0.7121599427896712 0.0 0 0 0
71 1 1.0003341695084067 1.0 0 6.353496237043409 -0.4908612349851814 0.0 0 0 0
72 1 1.0003374237911273 1.0 0 6.391007430938653 -0.7215593795683927 0.0 0 0 0
73 1 1.0003351285805657 1.0 0 6.190361931578702 -0.5873452339989931 0.0 0 0 0
74 1 1.0003382047230953 1.0 0 6.218741566838584 -0.7968883294416962 0.0 0 0 0
75 1 1.000334842755234 1.0 0 5.995710494949692 -0.574357721900603 0.0 0 0 0
76 1 1.0003354296984002 1.0 0 5.799956452870298 -0.6000739229529194 0.0 0 0 0
77 1 1.0003378288090676 1.0 0 6.0245629765742565 -0.7763795077671112 0.0 0 0 0
78 1 1.0003384560905777 1.0 0 5.835228375390614 -0.8021786417460577 0.0 0 0 0
79 1 1.0003339162843001 1.0 0 5.564339253592697 -0.4419066993545585 0.0 0 0 0
80 1 1.0003365479770763 1.0 0 5.6047729830553195 -0.6393015694750066 0.0 0 0 0
81 1 1.0003349640588 1.0 0 5.364458828820949 -0.4495337009828814 0.0 0 0 0
82 1 1.0003376071182224 1.0 0 5.403952861691137 -0.6503114640819908 0.0 0 0 0
83 1 1.0003395967510458 1.0 0 5.650336571452583 -0.8418209611385965 0.0 0 0 0
84 1 1.0003405003757015 1.0 0 5.4595510071875 -0.8482331160583075 0.0 0 0 0
85 1 1.0003396436333336 1.0 0 5.211508632964673 -0.7053648796219925 0.0 0 0 0
86 1 1.0003370584288005 1.0 0 5.172709539586974 -0.5121667902116583 0.0 0 0 0
87 1 1.0003397267820844 1.0 0 4.983208352822333 -0.5922020751685378 0.0 0 0 0
88 1 1.0003423643869556 1.0 0 5.031985591192446 -0.7899357000699042 0.0 0 0 0
89 1 1.0003452487924214 1.0 0 4.854636051021556 -0.8675826739128634 0.0 0 0 0
90 1 1.0003426289191435 1.0 0 4.797092351071136 -0.6680985318166558 0.0 0 0 0
91 1 1.0003402438800097 1.0 0 4.753715291709107 -0.46922361214101765 0.0 0 0 0
92 1 1.0003431527891657 1.0 0 4.567697114478764 -0.5276424315163573 0.0 0 0 0
93 1 1.0003456490410791 1.0 0 4.610575342824909 -0.7309766559225899 0.0 0 0 0
94 1 1.0003488698039553 1.0 0 4.425386502260532 -0.7889326256588965 0.0 0 0 0
95 1 1.0003462988475327 1.0 0 4.383810572104633 -0.5841376268213875 0.0 0 0 0
96 1 1.0003493438914266 1.0 0 4.194221119086626 -0.6090462850923922 0.0 0 0 0
97 1 1.0003515657547652 1.0 0 4.00547779726941 -0.5606076452599975 0.0 0 0 0
98 1 1.000351910111917 1.0 0 4.23104415833373 -0.8117470544821044 0.0 0 0 0
99 1 1.0003543129281567 1.0 0 4.0319503356117155 -0.7744979918099264 0.0 0 0 0
100 1 1.0003545204985358 1.0 0 3.8144283326049284 -0.5428011814146146 0.0 0 0 0
101 1 1.0003579606905997 1.0 0 3.6211506295969533 -0.5389594581954594 0.0 0 0 0
102 1 1.0003571290541156 1.0 0 3.8320910191175686 -0.7457388756385256 0.0 0 0 0
103 1 1.0003606093236206 1.0 0 3.628327958672494 -0.7380035012206633 0.0 0 0 0
104 1 1.000361568147729 1.0 0 3.4268039166650244 -0.5295845135690902 0.0 0 0 0
105 1 1.0003652711976831 1.0 0 3.233495523156159 -0.5129220856183301 0.0 0 0 0
106 1 1.0003643120684242 1.0 0 3.4279546591012346 -0.7327706956986678 0.0 0 0 0
107 1 1.0003679997014208 1.0 0 3.232887804284484 -0.718408208071463 0.0 0 0 0
108 1 1.0003693285694981 1.0 0 3.0402646824291537 -0.5082380488455388 0.0 0 0 0
109 1 1.000372024399221 1.0 0 3.041931079198011 -0.7194764204008356 0.0 0 0 0
110 1 1.000373663240175 1.0 0 2.847666856492193 -0.511030036698751 0.0 0 0 0
111 1 1.0003762033549768 1.0 0 2.8523873724923203 -0.7206097423160958 0.0 0 0 0
112 1 1.0003781398642795 1.0 0 2.649403541660391 -0.4994679236117913 0.0 0 0 0
113 1 1.0003803251519952 1.0 0 2.662320642876817 -0.7040627920299427 0.0 0 0 0
114 1 1.0003829033868816 1.0 0 2.4474836409257663 -0.4911755142653151 0.0 0 0 0
115 1 1.0003878279545284 1.0 0 2.2451986369790915 -0.4816954416626468 0.0 0 0 0
116 1 1.0003847941930937 1.0 0 2.46808719377257 -0.6946723884229675 0.0 0 0 0
117 1 1.000389431154078 1.0 0 2.2714902927553724 -0.682318196384722 0.0 0 0 0
118 1 1.000393286652443 1.0 0 2.0386575474517015 -0.498795549984235 0.0 0 0 0
119 1 1.0003989834248912 1.0 0 1.8294310950187356 -0.5229629186713376 0.0 0 0 0
120 1 1.0003944931098876 1.0 0 2.071909672190727 -0.6890489635736071 0.0 0 0 0
121 1 1.0003999012893523 1.0 0 1.868726954718181 -0.7114378805783574 0.0 0 0 0
122 1 1.0004047447883735 1.0 0 1.6171289512004143 -0.5393363964610394 0.0 0 0 0
123 1 1.0004103514630351 1.0 0 1.4022551290014293 -0.5254628420797945 0.0 0 0 0
124 1 1.000405378028354 1.0 0 1.6604955180752174 -0.7229867715417831 0.0 0 0 0
125 1 1.0004109625206723 1.0 0 1.4407771553496804 -0.7084781259797942 0.0 0 0 0
126 1 1.0004159043812886 1.0 0 1.1926295278952486 -0.5150646838173334 0.0 0 0 0
127 1 1.0004214436029752 1.0 0 0.9845500824191054 -0.5023854346335566 0.0 0 0 0
128 1 1.0004168087423715 1.0 0 1.2182841278336034 -0.7071877014954191 0.0 0 0 0
129 1 1.0004223559146608 1.0 0 1.0058124335430103 -0.6962220785778768 0.0 0 0 0
130 1 1.0004269820841991 1.0 0 0.7763822285945982 -0.48725628292288686 0.0 0 0 0
131 1 1.000427845567645 1.0 0 0.7944873897395657 -0.679469041407228 0.0 0 0 0
132 1 1.000432272932401 1.0 0 0.5757037300842464 -0.4683182320982304 0.0 0 0 0
133 1 1.0004333357269342 1.0 0 0.5846690518295382 -0.6713288172217262 0.0 0 0 0
134 1 1.0004350251344747 1.0 0 0.5714279283972418 -0.8694660831133767 0.0 0 0 0
135 1 1.0004373287827077 1.0 0 0.38006480210810845 -0.43497047641953607 0.0 0 0 0
136 1 1.000438474983865 1.0 0 0.38118125510222134 -0.6385460096977763 0.0 0 0 0
137 1 1.000439941192059 1.0 0 0.371303018787637 -0.8393221727046329 0.0 0 0 0
138 1 1.0004434248339287 1.0 0 0.17915893650994555 -0.5786145346331721 0.0 0 0 0
139 1 1.000444584263566 1.0 0 0.17582457568274706 -0.7803031133646048 0.0 0 0 0
140 1 1.000344704142004 1.0 0 6.644314288172726 -1.1384701946369857 0.0 0 0 0
141 1 1.0003412055465275 1.0 0 6.609451403227359 -0.9247052702886065 0.0 0 0 0
142 1 1.0003410187367356 1.0 0 6.427787366000294 -0.9527543912594955 0.0 0 0 0
143 1 1.0003414726373316 1.0 0 6.246778273320193 -1.00187524787553 0.0 0 0 0
144 1 1.0003446977535917 1.0 0 6.45898917762138 -1.1744078269581542 0.0 0 0 0
145 1 1.0003449476813937 1.0 0 6.2717192271334135 -1.2082728120737338 0.0 0 0 0
146 1 1.0003410460533162 1.0 0 6.050097090705107 -0.9790400469417638 0.0 0 0 0
147 1 1.0003417970038546 1.0 0 5.857239565045523 -1.009636668645771 0.0 0 0 0
148 1 1.00034443763726 1.0 0 6.0780026010256 -1.1809682068096494 0.0 0 0 0
149 1 1.0003452847189203 1.0 0 5.8888593611662134 -1.215249829816275 0.0 0 0 0
150 1 1.0003466225972644 1.0 0 5.705003484084846 -1.2617552370160674 0.0 0 0 0
151 1 1.000343025372603 1.0 0 5.668940233045742 -1.0511498986018086 0.0 0 0 0
152 1 1.0003439091322814 1.0 0 5.477065803443728 -1.0545750199494295 0.0 0 0 0
153 1 1.0003473638486196 1.0 0 5.513652546836237 -1.2589135676788505 0.0 0 0 0
154 1 1.0003460139239324 1.0 0 5.299358051834596 -1.1167154802015111 0.0 0 0 0
155 1 1.0003423990121112 1.0 0 5.273762239228613 -0.8989443156871421 0.0 0 0 0
156 1 1.0003451038307356 1.0 0 5.099482040395941 -0.9848074254815811 0.0 0 0 0
157 1 1.0003480219052636 1.0 0 4.923447868661374 -1.0661199351389625 0.0 0 0 0
158 1 1.0003486959930927 1.0 0 5.130053139959739 -1.1993493205374963 0.0 0 0 0
159 1 1.0003515555129385 1.0 0 4.9525803537158275 -1.274599616671599 0.0 0 0 0
160 1 1.0003481646060974 1.0 0 4.671521211778936 -0.9266411981535447 0.0 0 0 0
161 1 1.0003513780849806 1.0 0 4.488562943550126 -0.9887472259387279 0.0 0 0 0
162 1 1.000350815557764 1.0 0 4.735787521022936 -1.1196451314004463 0.0 0 0 0
163 1 1.0003540796521164 1.0 0 4.5447945562892045 -1.1833573744997046 0.0 0 0 0
164 1 1.0003542616120211 1.0 0 4.291515524255528 -1.0066203297858947 0.0 0 0 0
165 1 1.000356843493877 1.0 0 4.08851554383701 -0.9855478222040734 0.0 0 0 0
166 1 1.0003568858001326 1.0 0 4.335548310901299 -1.1942665066280358 0.0 0 0 0
167 1 1.0003597156377533 1.0 0 4.114119426401713 -1.1796747944393706 0.0 0 0 0
168 1 1.00035933070028 1.0 0 3.890062616154648 -0.9465373336207222 0.0 0 0 0
169 1 1.0003624787486989 1.0 0 3.68842010237811 -0.929846111160506 0.0 0 0 0
170 1 1.0003624009366034 1.0 0 3.8974453284815214 -1.1412136834496838 0.0 0 0 0
171 1 1.0003656197441408 1.0 0 3.6875521895879664 -1.1240131866718512 0.0 0 0 0
172 1 1.0003661869046392 1.0 0 3.482733985602249 -0.9286249743316529 0.0 0 0 0
173 1 1.000369290928501 1.0 0 3.482985879422601 -1.124512557117024 0.0 0 0 0
174 1 1.0003700189268325 1.0 0 3.2791832475863822 -0.9225441123568556 0.0 0 0 0
175 1 1.0003731054682867 1.0 0 3.2832130637692662 -1.1258481792735202 0.0 0 0 0
176 1 1.0003741099016268 1.0 0 3.080315412932047 -0.9247280510733626 0.0 0 0 0
177 1 1.00037705885138 1.0 0 3.0857251727344086 -1.1265354984382625 0.0 0 0 0
178 1 1.0003783742937438 1.0 0 2.8822829799866225 -0.9269081148710494 0.0 0 0 0
179 1 1.0003825769546248 1.0 0 2.6856078555476004 -0.9149243958069835 0.0 0 0 0
180 1 1.0003812192961514 1.0 0 2.888594726146236 -1.1302715023980032 0.0 0 0 0
181 1 1.0003853566679715 1.0 0 2.6932070259613554 -1.1245613658114275 0.0 0 0 0
182 1 1.0003916093522258 1.0 0 2.2817077203724287 -0.8839431844588174 0.0 0 0 0
183 1 1.0003869031875057 1.0 0 2.485693411036089 -0.893821581516023 0.0 0 0 0
184 1 1.000389217920633 1.0 0 2.49872365022107 -1.0891997101484192 0.0 0 0 0
185 1 1.0003938908386831 1.0 0 2.291488071303552 -1.0810098766013543 0.0 0 0 0
186 1 1.0003929458603869 1.0 0 2.44709558183552 -1.2745199273266963 0.0 0 0 0
187 1 1.000397810770549 1.0 0 2.2281509979010297 -1.2651148163960115 0.0 0 0 0
188 1 1.0003966218334555 1.0 0 2.0735484690144523 -0.8803881549821514 0.0 0 0 0
189 1 1.000402232297536 1.0 0 1.855040879083489 -0.8974099627796668 0.0 0 0 0
190 1 1.000398777282713 1.0 0 2.077276054143288 -1.0669846895902206 0.0 0 0 0
191 1 1.0004044712077613 1.0 0 1.848734689494716 -1.0790658090247742 0.0 0 0 0
192 1 1.0004025389443785 1.0 0 2.0156154519603264 -1.2464523144098403 0.0 0 0 0
193 1 1.0004077322899885 1.0 0 1.8076302356179708 -1.265615165132659 0.0 0 0 0
194 1 1.0004137688717405 1.0 0 1.3985085196430391 -0.8883960855956222 0.0 0 0 0
195 1 1.0004081595155225 1.0 0 1.6223184745028616 -0.9027053910098679 0.0 0 0 0
196 1 1.000409882315801 1.0 0 1.6340172219674494 -1.0866855043930514 0.0 0 0 0
197 1 1.0004128278064897 1.0 0 1.5989077318268916 -1.2728136736938016 0.0 0 0 0
198 1 1.0004150574311559 1.0 0 1.422450664771884 -1.0750864035296368 0.0 0 0 0
199 1 1.0004177682318556 1.0 0 1.3916669173546337 -1.2661452300936222 0.0 0 0 0
200 1 1.0004193683455336 1.0 0 1.1858340890402153 -0.8966797310796379 0.0 0 0 0
201 1 1.0004246873809077 1.0 0 0.9777672750403865 -0.8878406057950315 0.0 0 0 0
202 1 1.0004204866564603 1.0 0 1.2107378896939545 -1.0860253557287116 0.0 0 0 0
203 1 1.000422982343465 1.0 0 1.179019815431188 -1.270680110411618 0.0 0 0 0
204 1 1.0004257627074107 1.0 0 0.9974863946403201 -1.0780165506578518 0.0 0 0 0
205 1 1.0004283865211208 1.0 0 0.9527912121827679 -1.2589059655960966 0.0 0 0 0
206 1 1.000429825329254 1.0 0 0.7740499900610021 -0.8708753017916744 0.0 0 0 0
207 1 1.0004311323634896 1.0 0 0.7785256218093792 -1.0629763338169518 0.0 0 0 0
208 1 1.0004335509938163 1.0 0 0.7382656301315883 -1.2493251158967045 0.0 0 0 0
209 1 1.0004365477046828 1.0 0 0.5622286077293418 -1.0635406739853686 0.0 0 0 0
210 1 1.0004386605753395 1.0 0 0.5296619077642761 -1.25431897759213 0.0 0 0 0
211 1 1.000441514994198 1.0 0 0.3551720874222262 -1.036920781509227 0.0 0 0 0
212 1 1.0004433756401718 1.0 0 0.3266931309300058 -1.2307181393998132 0.0 0 0 0
213 1 1.0004460970317006 1.0 0 0.1557908300975091 -0.9779610374164259 0.0 0 0 0
214 1 1.0004476825131943 1.0 0 0.13197496389396984 -1.1754645635126895 0.0 0 0 0
215 1 1.0003483958111643 1.0 0 6.488470298930388 -1.3862639377858412 0.0 0 0 0
216 1 1.0003485096411013 1.0 0 6.294119524742949 -1.4116240862393017 0.0 0 0 0
217 1 1.0003522300606968 1.0 0 6.506256005362237 -1.6012891226726322 0.0 0 0 0
218 1 1.0003523216745533 1.0 0 6.323382213089866 -1.620771079807684 0.0 0 0 0
219 1 1.0003480331751913 1.0 0 6.093220061124738 -1.385851064332319 0.0 0 0 0
220 1 1.0003490679015212 1.0 0 5.904855347218281 -1.4269237359963236 0.0 0 0 0
221 1 1.0003517019429293 1.0 0 6.134026632519029 -1.5882243701141479 0.0 0 0 0
222 1 1.0003528820866319 1.0 0 5.952422060242259 -1.6381004398647052 0.0 0 0 0
223 1 1.0003543544450177 1.0 0 5.770761993240384 -1.68904703901667 0.0 0 0 0
224 1 1.0003505721200394 1.0 0 5.724836541625595 -1.4798238506729597 0.0 0 0 0
225 1 1.0003497649533735 1.0 0 5.335528688840895 -1.3354124113326165 0.0 0 0 0
226 1 1.0003511420592552 1.0 0 5.5348542109533 -1.467523548334869 0.0 0 0 0
227 1 1.0003537239591767 1.0 0 5.3591838658795385 -1.551543565775076 0.0 0 0 0
228 1 1.0003549382902088 1.0 0 5.574322631670779 -1.6768928953951783 0.0 0 0 0
229 1 1.0003524464122397 1.0 0 5.156300427266368 -1.4118489659613367 0.0 0 0 0
230 1 1.0003552717426283 1.0 0 4.967202152939457 -1.478170821727475 0.0 0 0 0
231 1 1.0003563151484567 1.0 0 5.174544294669708 -1.6201705402502176 0.0 0 0 0
232 1 1.000359005788576 1.0 0 4.983229355500707 -1.6780062653284438 0.0 0 0 0
233 1 1.0003542572887347 1.0 0 4.7594477837336955 -1.3208190417754 0.0 0 0 0
234 1 1.0003575025759674 1.0 0 4.558475675366983 -1.3778369343399781 0.0 0 0 0
235 1 1.0003579979236845 1.0 0 4.773202614285857 -1.5238328284830636 0.0 0 0 0
236 1 1.0003610259187963 1.0 0 4.580612661034005 -1.5728020308784247 0.0 0 0 0
237 1 1.0003618340647298 1.0 0 4.78891869826798 -1.7290670650739528 0.0 0 0 0
238 1 1.0003632874292707 1.0 0 4.377385843422685 -1.5638385289391454 0.0 0 0 0
239 1 1.0003602004207615 1.0 0 4.340181029169355 -1.3795031919353615 0.0 0 0 0
240 1 1.0003629553254898 1.0 0 4.121008781090068 -1.3658707684715499 0.0 0 0 0
241 1 1.0003658517775347 1.0 0 4.163378265392693 -1.5498252244574422 0.0 0 0 0
242 1 1.0003695251401237 1.0 0 4.149408064328312 -1.7346527477613012 0.0 0 0 0
243 1 1.000371917308807 1.0 0 3.9338961065423614 -1.6984466493567953 0.0 0 0 0
244 1 1.0003683910842394 1.0 0 3.9412047359502314 -1.5134397302225542 0.0 0 0 0
245 1 1.0003656114837909 1.0 0 3.901219707116405 -1.3289398766920113 0.0 0 0 0
246 1 1.0003689077910627 1.0 0 3.6879057456043975 -1.3165299004419813 0.0 0 0 0
247 1 1.0003716683074446 1.0 0 3.7232629316869255 -1.5048696030127497 0.0 0 0 0
248 1 1.000375195630563 1.0 0 3.714081442011638 -1.6917136845685472 0.0 0 0 0
249 1 1.0003726168505838 1.0 0 3.481572573934717 -1.3209678196317634 0.0 0 0 0
250 1 1.0003754422204139 1.0 0 3.511282310641877 -1.5157912476730149 0.0 0 0 0
251 1 1.0003790855304582 1.0 0 3.5010160819687686 -1.7116535208067836 0.0 0 0 0
252 1 1.0003764936054178 1.0 0 3.279011867902335 -1.3277185840098766 0.0 0 0 0
253 1 1.0003793164701908 1.0 0 3.302161025166429 -1.5227406109701407 0.0 0 0 0
254 1 1.000382885355285 1.0 0 3.287280922648978 -1.7140982790042087 0.0 0 0 0
255 1 1.0003804024998468 1.0 0 3.07724294864383 -1.3269079733410651 0.0 0 0 0
256 1 1.0003833093377428 1.0 0 3.0914295007218278 -1.523744750692479 0.0 0 0 0
257 1 1.000386865721943 1.0 0 3.075216306213296 -1.7167854271059726 0.0 0 0 0
258 1 1.0003845874917998 1.0 0 2.871776251784473 -1.3278937322668265 0.0 0 0 0
259 1 1.0003873840409758 1.0 0 2.8807652802152934 -1.5181246347366424 0.0 0 0 0
260 1 1.0003909009669547 1.0 0 2.8550248588883442 -1.7027547084171564 0.0 0 0 0
261 1 1.000388894561295 1.0 0 2.662251326439675 -1.3211512001492185 0.0 0 0 0
262 1 1.000391743164966 1.0 0 2.6666065943908923 -1.5146244718125006 0.0 0 0 0
263 1 1.0003952385507753 1.0 0 2.6371419707749855 -1.7002530464689907 0.0 0 0 0
264 1 1.0003953512511967 1.0 0 2.461471128852441 -1.4637975472409375 0.0 0 0 0
265 1 1.000399911107684 1.0 0 2.2490725560959435 -1.4546472226923677 0.0 0 0 0
266 1 1.0003989946760106 1.0 0 2.4206444242669227 -1.6509585729705392 0.0 0 0 0
267 1 1.000403465009274 1.0 0 2.205933359603639 -1.6407670461465151 0.0 0 0 0
268 1 1.0004045688888887 1.0 0 2.0321812705840707 -1.4362480769095434 0.0 0 0 0
269 1 1.0004098395256815 1.0 0 1.8120232194108563 -1.4532805714758974 0.0 0 0 0
270 1 1.0004077540924587 1.0 0 2.0027142051693163 -1.627883086545539 0.0 0 0 0
271 1 1.0004123988841525 1.0 0 1.8038600985623316 -1.6442973216708978 0.0 0 0 0
272 1 1.0004151393032612 1.0 0 1.5858670809032356 -1.4572531979993697 0.0 0 0 0
273 1 1.0004168599437033 1.0 0 1.6052055041216249 -1.6440114378927524 0.0 0 0 0
274 1 1.0004203689923752 1.0 0 1.3618197624433261 -1.454779820114626 0.0 0 0 0
275 1 1.000421389049315 1.0 0 1.4078421595360657 -1.6495171575262222 0.0 0 0 0
276 1 1.0004257966954033 1.0 0 1.130167017486594 -1.4481390342636635 0.0 0 0 0
277 1 1.0004256888090284 1.0 0 1.2090249311051244 -1.6274492771554747 0.0 0 0 0
278 1 1.0004308302271578 1.0 0 0.9174569243970085 -1.4456916719779855 0.0 0 0 0
279 1 1.0004304796940868 1.0 0 1.0003094071891017 -1.6312349985132388 0.0 0 0 0
280 1 1.0004357159287653 1.0 0 0.7088474974267831 -1.4418572003360353 0.0 0 0 0
281 1 1.0004352397304181 1.0 0 0.7876273264163959 -1.6267576867764835 0.0 0 0 0
282 1 1.0004405628655952 1.0 0 0.5025578872231778 -1.4474629379444302 0.0 0 0 0
283 1 1.0004400957574648 1.0 0 0.570433008811517 -1.62904990569888 0.0 0 0 0
284 1 1.0004450340694124 1.0 0 0.3025646709020038 -1.4255378954463702 0.0 0 0 0
285 1 1.0004450559732407 1.0 0 0.34265212176142085 -1.6177217910480222 0.0 0 0 0
286 1 1.000449167870561 1.0 0 0.109234896266837 -1.3758527776356115 0.0 0 0 0
287 1 1.0004495304292014 1.0 0 0.12956619619776907 -1.5811726922826814 0.0 0 0 0
288 1 1.0003561300105763 1.0 0 6.533834711145279 -1.8224704014348776 0.0 0 0 0
289 1 1.0003561650766828 1.0 0 6.3522854235573645 -1.8336957553467905 0.0 0 0 0
290 1 1.0003600037436726 1.0 0 6.556835402256651 -2.047498532212102 0.0 0 0 0
291 1 1.0003600918394355 1.0 0 6.382236625657216 -2.0564633746777012 0.0 0 0 0
292 1 1.000359457254537 1.0 0 6.202738775900162 -2.0145352763641062 0.0 0 0 0
293 1 1.0003555965476232 1.0 0 6.164610927879232 -1.7999631797931652 0.0 0 0 0
294 1 1.0003569093771676 1.0 0 5.989079246480121 -1.856390344498637 0.0 0 0 0
295 1 1.0003582644592763 1.0 0 5.811076111935414 -1.901402137924239 0.0 0 0 0
296 1 1.0003609503140218 1.0 0 6.035621395351225 -2.080112257692709 0.0 0 0 0
297 1 1.000362131691425 1.0 0 5.859360020306919 -2.1162349614013483 0.0 0 0 0
298 1 1.0003574659474133 1.0 0 5.392738113419456 -1.7565801530050833 0.0 0 0 0
299 1 1.0003586881019448 1.0 0 5.620327025466406 -1.882843989098211 0.0 0 0 0
300 1 1.0003610604849515 1.0 0 5.441622133733394 -1.9559985179827835 0.0 0 0 0
301 1 1.0003625158462757 1.0 0 5.675284163259476 -2.096142154998786 0.0 0 0 0
302 1 1.0003645389180598 1.0 0 5.496483515397922 -2.153274451079683 0.0 0 0 0
303 1 1.00036004018698 1.0 0 5.208171037690704 -1.8248269535533426 0.0 0 0 0
304 1 1.000362531828657 1.0 0 5.016560967081194 -1.8737990184527191 0.0 0 0 0
305 1 1.0003635705744804 1.0 0 5.256301088984181 -2.023369568111887 0.0 0 0 0
306 1 1.0003659405674616 1.0 0 5.057548772626307 -2.0662069060099375 0.0 0 0 0
307 1 1.0003687817016031 1.0 0 4.8525513882881794 -2.1179969050223924 0.0 0 0 0
308 1 1.0003646900943193 1.0 0 4.585022352970844 -1.7648384378269464 0.0 0 0 0
309 1 1.0003653496819918 1.0 0 4.823686974342038 -1.9266724365431989 0.0 0 0 0
310 1 1.0003679229356999 1.0 0 4.622028913688703 -1.951473736204934 0.0 0 0 0
311 1 1.0003714120006797 1.0 0 4.631044565235795 -2.1370976182743315 0.0 0 0 0
312 1 1.0003700697790692 1.0 0 4.409074680518526 -1.935848270264961 0.0 0 0 0
313 1 1.0003736522199247 1.0 0 4.413237859745278 -2.1240398756968086 0.0 0 0 0
314 1 1.0003669966871553 1.0 0 4.367678997511259 -1.7513666521662372 0.0 0 0 0
315 1 1.0003725205589502 1.0 0 4.188854526699545 -1.9177360365051797 0.0 0 0 0
316 1 1.0003759381129274 1.0 0 4.2027809297352725 -2.1056620887759063 0.0 0 0 0
317 1 1.0003750203605575 1.0 0 3.9649591230071213 -1.8858770130834077 0.0 0 0 0
318 1 1.0003782242664827 1.0 0 3.994105667768745 -2.0770366510364284 0.0 0 0 0
319 1 1.0003780873009684 1.0 0 3.7478318867154945 -1.8759264759483674 0.0 0 0 0
320 1 1.000381035888515 1.0 0 3.783953440034038 -2.0636164889878112 0.0 0 0 0
321 1 1.0003848536237792 1.0 0 3.588540694020348 -2.107553460448176 0.0 0 0 0
322 1 1.0003819589314407 1.0 0 3.541919088644671 -1.9070802787524124 0.0 0 0 0
323 1 1.000385425402647 1.0 0 3.3326697641107144 -1.9029231253961578 0.0 0 0 0
324 1 1.0003892512905903 1.0 0 3.121856011043375 -1.9073434237069782 0.0 0 0 0
325 1 1.0003879273513459 1.0 0 3.382959596775322 -2.094178586808753 0.0 0 0 0
326 1 1.0003916448470815 1.0 0 3.1649384509605105 -2.0950278366156927 0.0 0 0 0
327 1 1.0003928817438812 1.0 0 2.906278944436154 -1.8848295923128284 0.0 0 0 0
328 1 1.0003970970496228 1.0 0 2.6893915069236582 -1.8863480226051528 0.0 0 0 0
329 1 1.0003951699365206 1.0 0 2.944026875132811 -2.0695685886382678 0.0 0 0 0
330 1 1.0003990655107113 1.0 0 2.7328208421958826 -2.068580255320083 0.0 0 0 0
331 1 1.0004008028173537 1.0 0 2.4716434972581958 -1.8447988094099868 0.0 0 0 0
332 1 1.0004048950336821 1.0 0 2.260330804355632 -1.8275889718219618 0.0 0 0 0
333 1 1.0004028162150278 1.0 0 2.5100993124662194 -2.035522762316211 0.0 0 0 0
334 1 1.0004068020266303 1.0 0 2.292548584225829 -2.0160484105179908 0.0 0 0 0
335 1 1.000409348535279 1.0 0 2.045079979683625 -1.8220120097648669 0.0 0 0 0
336 1 1.000414018396075 1.0 0 1.834556767560978 -1.8355201369702818 0.0 0 0 0
337 1 1.0004110874902374 1.0 0 2.0757660435532324 -2.011079669148475 0.0 0 0 0
338 1 1.0004156486474083 1.0 0 1.8601967841341067 -2.0229934504767026 0.0 0 0 0
339 1 1.0004185997367903 1.0 0 1.6232462376126278 -1.8357325203034633 0.0 0 0 0
340 1 1.0004201357443865 1.0 0 1.644746328693594 -2.0247544360186103 0.0 0 0 0
341 1 1.0004232149319734 1.0 0 1.4164306484365967 -1.848539688492938 0.0 0 0 0
342 1 1.0004246819863525 1.0 0 1.435141805801595 -2.041686134589359 0.0 0 0 0
343 1 1.0004274447439447 1.0 0 1.210428471729432 -1.8231498373337405 0.0 0 0 0
344 1 1.0004287545383315 1.0 0 1.2298762289444496 -2.0189084886660997 0.0 0 0 0
345 1 1.0004319395756127 1.0 0 1.0030693347604747 -1.823204888532218 0.0 0 0 0
346 1 1.0004329406848615 1.0 0 1.0281282763418726 -2.0150246091250326 0.0 0 0 0
347 1 1.0004364118244942 1.0 0 0.7937111990473583 -1.8166061759660233 0.0 0 0 0
348 1 1.0004370922066104 1.0 0 0.8249744346120608 -2.0062417503735963 0.0 0 0 0
349 1 1.0004408580184263 1.0 0 0.5855179471052452 -1.8163195192015344 0.0 0 0 0
350 1 1.0004413035577664 1.0 0 0.6191377303654058 -2.0058574025508196 0.0 0 0 0
351 1 1.0004453834627451 1.0 0 0.4144248814977355 -1.9990775909715484 0.0 0 0 0
352 1 1.0004451605276246 1.0 0 0.3780335901202465 -1.8038405589272386 0.0 0 0 0
353 1 1.0004494929247152 1.0 0 0.1641184728925518 -1.777569629653616 0.0 0 0 0
354 1 1.0004491786261003 1.0 0 0.2166018575175683 -1.9739188278555835 0.0 0 0 0
355 1 1.000452869356862 1.0 0 0.027413667373006857 -1.9857443095416254 0.0 0 0 0
356 1 1.00036814734679 1.0 0 6.630876629355835 -2.5476935393742597 0.0 0 0 0
357 1 1.0003639667600634 1.0 0 6.590494043573974 -2.2832306673560963 0.0 0 0 0
358 1 1.0003640952785586 1.0 0 6.41797325401815 -2.2931677477422907 0.0 0 0 0
359 1 1.0003677149139856 1.0 0 6.458650302762889 -2.5165574104686828 0.0 0 0 0
360 1 1.0003633223363617 1.0 0 6.244003759778906 -2.236076675575028 0.0 0 0 0
361 1 1.000367311846605 1.0 0 6.285558406163337 -2.4753709938420876 0.0 0 0 0
362 1 1.000364894672857 1.0 0 6.075423526020312 -2.305626459327861 0.0 0 0 0
363 1 1.000365775836432 1.0 0 5.890054361391261 -2.3232404433862532 0.0 0 0 0
364 1 1.0003692730456593 1.0 0 5.926978328961977 -2.5288031986675503 0.0 0 0 0
365 1 1.0003684844492025 1.0 0 6.113592741268476 -2.519277108696141 0.0 0 0 0
366 1 1.0003705142954262 1.0 0 5.7427776144113185 -2.5534799369522623 0.0 0 0 0
367 1 1.0003665981966667 1.0 0 5.704166035046829 -2.3250599009154658 0.0 0 0 0
368 1 1.0003681949873815 1.0 0 5.518325794119863 -2.356425291853218 0.0 0 0 0
369 1 1.00037159146999 1.0 0 5.553646179490023 -2.5559329668293884 0.0 0 0 0
370 1 1.000366960348957 1.0 0 5.309811929589446 -2.2180732944817545 0.0 0 0 0
371 1 1.0003706204988398 1.0 0 5.3328053140162615 -2.421617120865357 0.0 0 0 0
372 1 1.0003691359725764 1.0 0 5.11294598615302 -2.2543570864234725 0.0 0 0 0
373 1 1.000372643853476 1.0 0 5.13646699198828 -2.4498744041333542 0.0 0 0 0
374 1 1.0003717470636964 1.0 0 4.914804222672373 -2.301279620151575 0.0 0 0 0
375 1 1.0003751853525344 1.0 0 4.936336751189938 -2.493940376807577 0.0 0 0 0
376 1 1.0003739906982803 1.0 0 4.7024047913983145 -2.30994128725738 0.0 0 0 0
377 1 1.000377211089129 1.0 0 4.728029994053798 -2.4950574952473206 0.0 0 0 0
378 1 1.0003764207313894 1.0 0 4.474202082281718 -2.3063564607229154 0.0 0 0 0