ITEM: TIMESTEP
0
ITEM: NUMBER OF ATOMS
32000
ITEM: BOX BOUNDS pp pp pp
0.0000000000000000e+00 3.1748021039364001e+01
0.0000000000000000e+00 3.1748021039364001e+01
0.0000000000000000e+00 3.1748021039364001e+01
ITEM: ATOMS id x y z c_phase c_nbond c_rho v_omega
4 0.116341 1.10259 0.464337 0 0 1 0
83 0.974108 1.6685 0.77798 0 0 1 0
842 0.714648 0.793562 1.41295 0 0 1 0
921 0.00336375 1.60273 1.37437 0 0 1 0
3 0.729896 0.0633724 0.61602 0 0 1 0
8 1.71015 0.808983 1.0155 0 0 1 0
85 1.80059 1.47468 0.221075 0 0 1 0
925 1.82015 1.66049 1.76126 0 0 1 0
6 2.52093 0.749102 0.203812 0 0 1 0
7 2.59149 0.0538711 1.03726 0 0 1 0
87 2.64922 1.541 0.882848 0 0 1 0
846 2.66829 0.815502 1.7457 0 0 1 0
12 3.43386 0.933692 0.956349 0 0 1 0
849 3.49924 0.0925696 1.70571 0 0 1 0
929 3.60652 1.70798 1.71994 0 0 1 0
10 4.10576 0.858321 0.325305 0 0 1 0
16 4.96159 0.56786 1.17466 0 0 1 0
93 4.91949 1.59987 0.383508 0 0 1 0
850 4.3472 0.941527 1.62884 0 0 1 0
9 3.47612 0.111428 0.171027 0 0 1 0
14 5.64741 0.645627 0.325839 0 0 1 0
95 5.88414 1.31048 0.938036 0 0 1 0
97 6.57478 1.39104 0.218369 0 0 1 0
854 5.78374 0.460658 1.69897 0 0 1 0
933 5.03122 1.72414 1.43602 0 0 1 0
20 6.7138 0.39031 0.865278 0 0 1 0
937 6.69104 1.00962 1.69374 0 0 1 0
24 8.2679 0.408875 1.07337 0 0 1 0
99 7.36782 1.22285 0.954198 0 0 1 0
101 8.24709 1.39092 0.236779 0 0 1 0
941 8.12868 1.27217 1.60653 0 0 1 0
18 7.58247 0.647807 0.140287 0 0 1 0
22 8.85849 0.508506 0.273966 0 0 1 0
28 9.55301 0.3386 0.888639 0 0 1 0
103 9.02586 1.30716 1.1133 0 0 1 0
945 9.5742 0.973184 1.76333 0 0 1 0
105 9.63995 1.37474 0.0900752 0 0 1 0
32 11.2128 0.215893 0.632658 0 0 1 0
107 10.3637 1.04743 0.823114 0 0 1 0
866 10.523 0.196295 1.44539 0 0 1 0
949 11.2856 1.01846 1.41785 0 0 1 0
946 10.5797 1.67706 1.72992 0 0 1 0
26 10.2431 0.367861 0.0780499 0 0 1 0
36 12.8757 0.211714 0.636805 0 0 1 0
111 12.0457 1.07408 0.506655 0 0 1 0
870 12.1319 0.316439 1.29957 0 0 1 0
953 12.7194 1.19864 1.3723 0 0 1 0
40 14.3729 0.318493 0.764646 0 0 1 0
115 13.5924 1.113 0.843618 0 0 1 0
117 14.0399 1.55958 0.167469 0 0 1 0
874 13.6075 0.359834 1.6352 0 0 1 0
957 14.3777 1.14948 1.47647 0 0 1 0
119 14.8761 1.55337 0.662943 0 0 1 0
44 15.7061 0.770636 0.788259 0 0 1 0
123 16.5532 1.54451 0.681338 0 0 1 0
878 15.1422 0.4642 1.64149 0 0 1 0
882 16.547 0.712289 1.3421 0 0 1 0
961 15.6341 1.48544 1.3916 0 0 1 0
38 15.1049 0.711806 0.0677822 0 0 1 0
48 17.2544 0.732268 0.547589 0 0 1 0
127 17.9231 1.58109 0.757246 0 0 1 0
886 17.916 0.742935 1.42801 0 0 1 0
965 17.2202 1.74884 1.56274 0 0 1 0
51 19.5372 0.0167772 0.662766 0 0 1 0
52 18.7918 0.725074 0.684829 0 0 1 0
131 19.5395 1.55488 0.841653 0 0 1 0
889 19.0276 0.158607 1.54508 0 0 1 0
890 19.5934 0.967491 1.68957 0 0 1 0
969 18.6564 1.51302 1.50035 0 0 1 0
55 21.0889 0.349843 1.06749 0 0 1 0
56 20.2493 0.776373 0.980057 0 0 1 0
135 21.1062 1.65725 0.951506 0 0 1 0
54 21.1874 0.765598 0.218806 0 0 1 0
133 20.3457 1.51479 0.193617 0 0 1 0
57 22.0087 0.262534 0.539755 0 0 1 0
59 22.7913 0.430275 1.40734 0 0 1 0
60 22.1105 1.14763 1.32981 0 0 1 0
137 21.9982 1.59955 0.538558 0 0 1 0
58 22.9157 1.07463 0.445168 0 0 1 0
63 24.228 0.380179 1.45209 0 0 1 0
61 23.5672 0.357563 0.57369 0 0 1 0
62 24.4367 1.18687 0.754729 0 0 1 0
64 23.4757 1.2499 1.4028 0 0 1 0
65 24.955 0.315686 0.551996 0 0 1 0
67 26.0085 0.383365 1.1715 0 0 1 0
68 25.169 1.12579 1.48087 0 0 1 0
147 25.9301 1.73476 1.35794 0 0 1 0
66 25.8917 0.929212 0.432102 0 0 1 0
70 27.5736 1.28032 0.38906 0 0 1 0
71 27.6142 0.50928 0.874321 0 0 1 0
72 26.7559 1.02809 1.26347 0 0 1 0
913 28.3748 0.337482 1.39813 0 0 1 0
69 26.7925 0.240345 0.226621 0 0 1 0
76 28.6489 1.24263 0.742341 0 0 1 0
914 29.3912 0.945639 1.56878 0 0 1 0
993 28.5228 1.71921 1.49749 0 0 1 0
917 29.8133 0.173958 1.46124 0 0 1 0
75 29.2734 0.3547 0.615275 0 0 1 0
841 31.5874 0.266128 1.25663 0 0 1 0
79 30.7016 0.49015 0.470738 0 0 1 0
80 30.1009 1.19877 0.774133 0 0 1 0
918 30.8649 0.971942 1.39386 0 0 1 0
82 1.11081 2.43607 0.129285 0 0 1 0
84 0.133403 2.3821 0.812241 0 0 1 0
163 1.28845 3.23764 0.949187 0 0 1 0
922 1.13977 2.36077 1.59162 0 0 1 0
1001 0.386685 3.02999 1.54944 0 0 1 0
161 0.332248 3.09582 0.131296 0 0 1 0
88 1.90972 2.41867 0.78376 0 0 1 0
167 2.65852 3.28029 0.860875 0 0 1 0
926 2.66931 2.22918 1.53373 0 0 1 0
1009 3.2579 3.42668 1.64938 0 0 1 0
86 2.7261 2.38168 0.0557193 0 0 1 0
92 3.38195 2.55413 0.779289 0 0 1 0
91 4.00679 1.841 0.711184 0 0 1 0
96 4.91383 2.57277 0.815661 0 0 1 0
171 4.20148 3.3175 0.749446 0 0 1 0
930 4.13245 2.64107 1.58328 0 0 1 0
94 5.65047 2.44269 0.132743 0 0 1 0
100 6.55776 2.18062 0.772597 0 0 1 0
175 5.64874 3.19593 0.952489 0 0 1 0
934 5.861 2.19426 1.49672 0 0 1 0
1017 6.52037 3.06691 1.5557 0 0 1 0
177 6.65033 2.92778 0.134227 0 0 1 0
98 7.45405 2.22586 0.139832 0 0 1 0
104 8.08209 2.20208 0.930382 0 0 1 0
179 7.40132 3.06835 0.934051 0 0 1 0
938 7.29928 2.06035 1.56856 0 0 1 0
1021 8.18545 3.00183 1.65211 0 0 1 0
181 8.26934 2.9712 0.0392146 0 0 1 0
102 8.90393 2.08699 0.252387 0 0 1 0
108 9.77243 2.0246 1.10996 0 0 1 0
183 8.92671 2.97262 0.928693 0 0 1 0
942 9.03062 2.22066 1.70398 0 0 1 0
185 9.56096 2.90576 0.21312 0 0 1 0
106 10.2834 2.1137 0.214297 0 0 1 0
112 11.1583 1.82604 0.771092 0 0 1 0
187 10.6214 2.80819 0.921535 0 0 1 0
1029 11.4444 2.82964 1.57484 0 0 1 0
116 12.6737 1.94118 0.593851 0 0 1 0
191 11.928 2.64099 0.742299 0 0 1 0
950 11.9239 1.9206 1.46509 0 0 1 0
1033 12.8449 3.01766 1.68597 0 0 1 0
195 13.1791 3.03035 0.848852 0 0 1 0
954 13.3784 1.9912 1.48064 0 0 1 0
120 14.0206 2.44438 0.927124 0 0 1 0
1037 14.0279 3.38359 1.55716 0 0 1 0
199 14.6961 3.43698 0.884932 0 0 1 0
958 14.7823 2.29758 1.44821 0 0 1 0
118 14.8418 2.51505 0.136557 0 0 1 0
197 14.1591 3.2262 0.0325348 0 0 1 0
114 13.4137 2.29398 0.0590902 0 0 1 0
124 15.6993 2.44373 0.692668 0 0 1 0
203 16.3029 3.20095 0.662084 0 0 1 0
962 16.308 2.47951 1.52575 0 0 1 0
1041 15.3694 3.25723 1.50191 0 0 1 0
201 15.5706 3.25854 0.0192499 0 0 1 0
128 17.0646 2.35032 0.682778 0 0 1 0
207 17.944 2.92608 0.699539 0 0 1 0
966 18.0193 2.43917 1.58112 0 0 1 0
1045 17.0918 3.1162 1.49491 0 0 1 0
132 18.8908 2.35742 1.01358 0 0 1 0
211 19.7027 3.2427 1.27782 0 0 1 0
209 18.884 2.99607 0.196019 0 0 1 0
130 19.587 2.34239 0.101452 0 0 1 0
973 20.3251 1.78863 1.72442 0 0 1 0
134 21.1565 2.41663 0.458355 0 0 1 0
136 20.1948 2.46882 1.11433 0 0 1 0
215 21.31 3.29463 1.39314 0 0 1 0
213 20.4222 2.99313 0.334941 0 0 1 0
139 22.8719 2.07007 1.50872 0 0 1 0
138 22.9717 2.60199 0.735523 0 0 1 0
140 22.0961 2.49917 1.23787 0 0 1 0
217 21.9898 3.20043 0.598797 0 0 1 0
16179 22.6771 3.40124 0.07601 0 0 1 0
141 23.7438 1.80844 0.624025 0 0 1 0
143 24.4289 1.98763 1.61102 0 0 1 0
142 24.342 2.68296 0.775192 0 0 1 0
144 23.6887 2.90303 1.53628 0 0 1 0
223 24.4728 3.51078 1.55704 0 0 1 0
16108 24.9562 2.84566 0.0146836 0 0 1 0
149 26.5483 1.79415 0.511367 0 0 1 0
145 25.1322 1.85613 0.509414 0 0 1 0
146 25.7918 2.61203 0.707489 0 0 1 0
148 25.1579 2.55548 1.52547 0 0 1 0
227 25.7213 3.49812 1.51211 0 0 1 0
152 26.5364 2.56002 1.53049 0 0 1 0
229 26.1686 3.50068 0.599043 0 0 1 0
151 27.5039 1.98546 1.23792 0 0 1 0
153 28.2489 2.09022 0.343734 0 0 1 0
150 27.0867 2.6924 0.645359 0 0 1 0
231 27.1998 3.35397 1.41682 0 0 1 0
156 28.2537 2.75799 1.20639 0 0 1 0
233 27.982 3.21993 0.326384 0 0 1 0
997 29.9568 1.80906 1.70764 0 0 1 0
155 29.4477 2.04702 0.879698 0 0 1 0
154 29.1956 2.6589 0.290703 0 0 1 0
235 29.2495 3.2651 1.17365 0 0 1 0
159 30.9114 1.98502 0.924207 0 0 1 0
160 30.1815 2.71094 1.00186 0 0 1 0
239 31.0247 3.35309 0.97101 0 0 1 0
998 30.9865 2.69483 1.72648 0 0 1 0
237 30.1092 3.25953 0.132205 0 0 1 0
157 30.4116 1.90909 0.0255368 0 0 1 0
158 31.1434 2.66402 0.0761253 0 0 1 0
164 0.293831 3.78503 0.918557 0 0 1 0
241 0.143046 4.59443 0.482118 0 0 1 0
243 1.14036 4.67093 0.986638 0 0 1 0
244 0.0884667 5.26681 1.27761 0 0 1 0
162 1.04069 3.86421 0.0595682 0 0 1 0
168 1.84117 4.04604 0.847105 0 0 1 0
247 2.54049 4.85585 1.13748 0 0 1 0
166 2.64953 4.14475 0.20674 0 0 1 0
245 1.89758 4.96895 0.278386 0 0 1 0
249 3.40771 4.86189 0.161635 0 0 1 0
172 3.494 4.07675 0.885909 0 0 1 0
176 4.91235 4.00001 1.18344 0 0 1 0
251 4.04658 4.88002 1.14639 0 0 1 0
170 4.26027 4.18509 0.149001 0 0 1 0
253 5.00947 4.74001 0.341082 0 0 1 0
174 5.77735 3.9378 0.198707 0 0 1 0
180 6.48883 3.76611 0.772067 0 0 1 0
255 5.68025 4.73638 1.02487 0 0 1 0
1097 6.66321 4.5115 1.6428 0 0 1 0
260 6.68072 5.1315 0.885352 0 0 1 0
184 8.1982 3.892 0.700757 0 0 1 0
259 7.40842 4.46072 0.5468 0 0 1 0
1018 7.39886 3.87029 1.49684 0 0 1 0
1101 8.20004 4.61106 1.48677 0 0 1 0
188 9.8976 3.57792 0.885667 0 0 1 0
263 9.07913 4.56551 0.821335 0 0 1 0
265 9.86266 4.50302 0.126324 0 0 1 0
1022 9.07829 3.76256 1.49819 0 0 1 0
1105 9.86881 4.3462 1.65532 0 0 1 0
182 8.98541 3.86821 0.0631775 0 0 1 0
192 11.408 3.64493 0.778297 0 0 1 0
267 10.5891 4.66652 0.906264 0 0 1 0
269 11.3867 4.69403 0.230734 0 0 1 0
1026 10.7059 3.56689 1.58785 0 0 1 0
1109 11.3652 4.3716 1.70545 0 0 1 0
272 11.3894 5.27213 0.983682 0 0 1 0
186 10.5826 3.84888 0.176129 0 0 1 0
196 12.5168 3.57716 0.814749 0 0 1 0
271 12.1916 4.55033 1.00021 0 0 1 0
1113 12.7362 4.99738 1.68903 0 0 1 0
275 13.2258 4.67863 0.80017 0 0 1 0
273 12.6435 4.61885 0.0632315 0 0 1 0
200 13.9891 4.12825 0.69648 0 0 1 0
1034 13.4832 4.21781 1.59317 0 0 1 0
1117 14.2046 5.11838 1.52001 0 0 1 0
279 14.9402 5.01141 0.811699 0 0 1 0
1038 14.9642 4.4167 1.59432 0 0 1 0
277 14.1405 4.90647 0.0597868 0 0 1 0
198 14.961 4.19423 0.096508 0 0 1 0
204 15.6685 4.06642 0.926277 0 0 1 0
281 15.8798 4.77595 0.186426 0 0 1 0
283 16.5936 4.58036 0.900182 0 0 1 0
1042 16.3184 3.95875 1.6903 0 0 1 0
1121 15.8111 5.05317 1.64084 0 0 1 0
208 17.2689 3.83372 0.811237 0 0 1 0
287 18.0864 4.48855 1.09806 0 0 1 0
1046 17.9525 3.63794 1.65602 0 0 1 0
285 17.4569 4.57727 0.0147963 0 0 1 0
206 18.1348 3.8547 0.0583493 0 0 1 0
212 18.8779 3.70667 0.95022 0 0 1 0
289 18.8235 4.60949 0.361826 0 0 1 0
291 19.6906 4.67872 1.0803 0 0 1 0
292 18.7859 5.27693 1.20102 0 0 1 0
210 19.5987 3.76722 0.227421 0 0 1 0
216 20.4384 3.82188 1.23329 0 0 1 0
295 20.8846 4.71868 1.39403 0 0 1 0
297 21.5775 4.95128 0.810455 0 0 1 0
214 21.0824 3.93136 0.512408 0 0 1 0
293 20.1339 4.78559 0.352846 0 0 1 0
219 22.8205 3.63186 1.42135 0 0 1 0
220 21.9406 4.13318 1.31068 0 0 1 0
299 22.4705 5.17735 1.27286 0 0 1 0
218 22.6119 4.34705 0.510028 0 0 1 0
221 23.5735 3.63903 0.782677 0 0 1 0
222 24.336 4.32055 0.625018 0 0 1 0
224 23.4679 4.54946 1.33355 0 0 1 0
305 24.8518 5.25716 0.566763 0 0 1 0
301 23.5518 5.06386 0.533607 0 0 1 0
228 25.0086 4.50055 1.62342 0 0 1 0
225 25.0629 3.68037 0.802132 0 0 1 0
303 24.363 5.28843 1.43377 0 0 1 0
307 25.6904 5.1389 1.34266 0 0 1 0
232 26.3575 4.29031 1.37159 0 0 1 0
309 26.5026 4.97257 0.640732 0 0 1 0
226 25.5284 4.40089 0.388179 0 0 1 0
311 27.3302 4.86961 1.40568 0 0 1 0
236 27.9624 3.97641 1.10408 0 0 1 0
313 28.2771 4.73475 0.706344 0 0 1 0
230 27.0674 4.04323 0.570038 0 0 1 0
234 28.9321 3.77016 0.487204 0 0 1 0
315 29.0873 4.52317 1.33085 0 0 1 0
240 29.9979 4.07209 1.02303 0 0 1 0
238 31.0296 3.97382 0.373364 0 0 1 0
317 30.2046 4.67765 0.491317 0 0 1 0
319 30.9783 4.59929 1.41131 0 0 1 0
242 0.908283 5.53205 0.461647 0 0 1 0
248 1.53161 5.51184 1.37971 0 0 1 0
323 0.793684 6.22023 1.2768 0 0 1 0
324 0.257003 6.91734 1.50738 0 0 1 0
322 0.969942 6.9454 0.573423 0 0 1 0
328 1.7053 7.02884 1.23811 0 0 1 0
325 1.89588 6.19966 0.519025 0 0 1 0
252 3.10475 5.61709 1.30057 0 0 1 0
327 2.26359 6.15348 1.40977 0 0 1 0
332 3.25442 6.96226 1.12748 0 0 1 0
246 2.68177 5.61289 0.273587 0 0 1 0
329 3.39503 6.28191 0.500536 0 0 1 0
250 4.18979 5.46246 0.325783 0 0 1 0
256 4.93434 5.42873 1.31778 0 0 1 0
331 4.13622 6.09659 1.22779 0 0 1 0
333 4.82567 6.23357 0.333842 0 0 1 0
336 4.77312 6.79931 1.15967 0 0 1 0
330 4.00267 7.02511 0.221759 0 0 1 0
254 5.78575 5.42185 0.301847 0 0 1 0
335 5.6935 6.24342 0.9632 0 0 1 0
1177 6.4578 5.98425 1.59671 0 0 1 0
340 6.43234 6.86927 1.00965 0 0 1 0
337 6.37773 6.04115 0.154639 0 0 1 0
334 5.54993 7.05206 0.147147 0 0 1 0
264 8.21355 5.31419 0.694273 0 0 1 0
339 7.32761 6.15925 0.754293 0 0 1 0
1098 7.39163 5.41839 1.49138 0 0 1 0
1181 8.23884 6.11028 1.49159 0 0 1 0
344 8.01352 6.85364 0.728993 0 0 1 0
1178 7.28191 6.86379 1.59601 0 0 1 0
258 7.33029 5.3575 0.0461812 0 0 1 0
268 9.76796 5.3194 0.792562 0 0 1 0
343 8.88016 6.18865 0.736908 0 0 1 0
1102 9.05434 5.3271 1.5973 0 0 1 0
1185 9.73844 6.19052 1.46731 0 0 1 0
1182 9.09351 6.95013 1.463 0 0 1 0
345 9.76329 6.23201 0.0941385 0 0 1 0
262 8.99733 5.46479 0.012702 0 0 1 0
347 10.5831 6.02196 0.964384 0 0 1 0
349 11.3128 6.37134 0.0776634 0 0 1 0
346 10.5187 6.94145 0.15452 0 0 1 0
1186 10.4686 6.92564 1.49614 0 0 1 0
270 11.9994 5.6274 0.183157 0 0 1 0
276 12.6757 5.81849 0.861776 0 0 1 0
351 11.7774 6.20735 1.05291 0 0 1 0
1114 13.3219 5.86668 1.55471 0 0 1 0
355 13.3506 6.58297 0.813679 0 0 1 0
274 13.3212 5.53867 0.0424813 0 0 1 0
280 14.0617 5.71565 0.77266 0 0 1 0
1197 14.3278 6.65176 1.40646 0 0 1 0
357 14.1303 6.38483 0.0380077 0 0 1 0
278 15.0282 5.64393 0.034369 0 0 1 0
284 15.8305 5.73813 0.95832 0 0 1 0
359 15.0472 6.45091 0.806774 0 0 1 0
363 16.491 6.45257 1.1401 0 0 1 0
1118 15.1058 5.87594 1.69804 0 0 1 0
282 16.62 5.41933 0.276819 0 0 1 0
361 15.6753 6.3382 0.0390223 0 0 1 0
286 17.8271 5.30128 0.541411 0 0 1 0
288 17.113 5.42499 1.24767 0 0 1 0
365 17.0619 6.27419 0.411469 0 0 1 0
367 17.6649 6.24649 1.38542 0 0 1 0
372 18.2745 7.0517 1.13153 0 0 1 0
369 18.3714 6.23173 0.609762 0 0 1 0
290 19.429 5.75829 0.62055 0 0 1 0
371 19.3279 6.55755 1.35081 0 0 1 0
373 19.9942 6.75229 0.610261 0 0 1 0
294 20.7494 5.77593 0.653722 0 0 1 0
296 20.1931 5.61076 1.39557 0 0 1 0
375 20.7787 6.6124 1.30355 0 0 1 0
377 21.6592 6.66248 0.666524 0 0 1 0
300 21.6631 5.87866 1.38528 0 0 1 0
16260 21.6904 5.73259 0.0517844 0 0 1 0
298 22.6732 5.8279 0.674154 0 0 1 0
379 22.6319 6.69333 1.20734 0 0 1 0
381 23.3484 6.78052 0.267835 0 0 1 0
304 23.4822 5.88496 1.30013 0 0 1 0
383 24.3197 6.56281 1.15825 0 0 1 0
302 24.1457 6.00685 0.427617 0 0 1 0
306 25.6831 5.86213 0.700952 0 0 1 0
308 25.1124 6.04132 1.67733 0 0 1 0
385 25.1593 6.74159 0.495153 0 0 1 0
387 25.8251 6.59457 1.40775 0 0 1 0
312 26.6903 5.84511 1.4763 0 0 1 0
310 27.4966 5.54334 0.722172 0 0 1 0
389 26.7485 6.36567 0.651888 0 0 1 0
391 27.7011 6.47315 1.36539 0 0 1 0
316 28.3648 5.52203 1.4872 0 0 1 0
390 27.7097 7.0074 0.530173 0 0 1 0
314 29.3889 5.30889 0.818726 0 0 1 0
395 29.4379 6.18214 1.32212 0 0 1 0
394 29.5784 6.89773 0.506505 0 0 1 0
393 28.4685 6.20589 0.638647 0 0 1 0
16355 29.3762 6.15398 0.0801838 0 0 1 0
16276 28.4822 5.38976 0.0592959 0 0 1 0
318 30.9636 5.36838 0.595026 0 0 1 0
320 30.2159 5.45949 1.46813 0 0 1 0
397 30.3958 6.18258 0.649752 0 0 1 0
399 31.2189 6.15516 1.38439 0 0 1 0
398 31.1994 6.95407 0.60342 0 0 1 0
321 31.7235 5.99622 0.446564 0 0 1 0
401 0.261851 7.63199 0.661866 0 0 1 0
402 0.831025 8.46344 0.61936 0 0 1 0
403 1.11211 7.86396 1.49711 0 0 1 0
404 0.356955 8.5626 1.47035 0 0 1 0
405 1.59266 7.76478 0.37187 0 0 1 0
408 1.72382 8.61735 1.46471 0 0 1 0
326 2.48799 7.14986 0.476331 0 0 1 0
406 2.19177 8.6335 0.399707 0 0 1 0
407 2.39416 7.81099 1.27726 0 0 1 0
412 3.01349 8.51445 0.935533 0 0 1 0
409 3.24418 7.77117 0.327041 0 0 1 0
410 3.81243 8.45898 0.0822892 0 0 1 0
411 3.97971 7.67009 1.24863 0 0 1 0
416 4.70459 8.25653 0.921772 0 0 1 0
413 4.67023 7.63706 0.247803 0 0 1 0
1250 3.81127 8.34851 1.76162 0 0 1 0
414 5.86955 8.34822 0.169905 0 0 1 0
415 5.48363 7.59071 1.03232 0 0 1 0
417 6.49365 7.53799 0.169175 0 0 1 0
420 6.39674 8.23976 1.04384 0 0 1 0
419 7.28583 7.76918 0.746313 0 0 1 0
424 8.2859 8.31376 0.868772 0 0 1 0
1258 7.27857 8.18368 1.7015 0 0 1 0
1261 8.05208 7.48784 1.5604 0 0 1 0
421 7.99895 7.60312 0.0282118 0 0 1 0
348 9.84313 7.22199 0.72344 0 0 1 0
423 8.91207 7.61626 0.661731 0 0 1 0
428 9.73234 8.61964 0.693151 0 0 1 0
1262 9.09265 8.69904 1.44495 0 0 1 0
1265 9.64026 7.88932 1.60055 0 0 1 0
352 11.3161 7.14287 0.810636 0 0 1 0
427 10.5731 7.9454 0.844311 0 0 1 0
1266 10.5877 8.70196 1.4255 0 0 1 0
1269 11.4057 7.80503 1.60301 0 0 1 0
429 11.227 8.11851 0.0422735 0 0 1 0
356 12.7061 7.28322 0.565784 0 0 1 0
431 12.178 8.23518 0.590765 0 0 1 0
1190 12.0637 7.15788 1.37768 0 0 1 0
1270 12.0887 8.68064 1.49044 0 0 1 0
1273 12.8601 7.99585 1.47598 0 0 1 0
360 14.3373 7.3542 0.580954 0 0 1 0
435 13.6169 8.09282 0.464536 0 0 1 0
1194 13.458 7.34024 1.34133 0 0 1 0
1277 14.2471 8.18371 1.35246 0 0 1 0
362 16.4328 7.18497 0.276798 0 0 1 0
364 15.6276 7.3114 0.923132 0 0 1 0
439 15.0689 8.29247 0.865596 0 0 1 0
443 16.26 8.16052 1.11176 0 0 1 0
1198 15.1452 7.52269 1.62484 0 0 1 0
441 15.8668 8.31534 0.152632 0 0 1 0
368 16.977 7.36262 1.11681 0 0 1 0
445 17.0683 8.10487 0.342208 0 0 1 0
447 17.703 8.02386 1.02699 0 0 1 0
366 17.816 7.16593 0.212954 0 0 1 0
370 19.0043 7.33822 0.644529 0 0 1 0
451 18.9276 8.15325 1.18625 0 0 1 0
376 19.871 7.65743 1.3273 0 0 1 0
453 19.8034 8.14191 0.360639 0 0 1 0
449 18.4485 8.18989 0.168602 0 0 1 0
374 20.6988 7.46059 0.673449 0 0 1 0
455 20.6463 8.44048 1.03669 0 0 1 0
380 21.5411 7.67297 1.15048 0 0 1 0
457 21.6115 8.34459 0.258573 0 0 1 0
459 22.5864 8.17833 1.02102 0 0 1 0
1218 22.417 7.50131 1.75996 0 0 1 0
378 22.3364 7.48462 0.386381 0 0 1 0
384 23.4446 7.32194 1.0516 0 0 1 0
461 23.4881 8.07549 0.386864 0 0 1 0
463 24.3435 8.10177 1.00287 0 0 1 0
1302 24.2519 8.71797 1.68854 0 0 1 0
382 24.3392 7.32545 0.26928 0 0 1 0
388 25.1162 7.39484 1.25566 0 0 1 0
467 26.02 8.00574 0.988901 0 0 1 0
1306 26.0181 8.62842 1.75809 0 0 1 0
386 26.0919 7.27875 0.36814 0 0 1 0
465 25.2288 8.1324 0.307821 0 0 1 0
466 26.2729 8.58549 0.0891813 0 0 1 0
392 26.7829 7.11176 1.34398 0 0 1 0
470 27.9642 8.50472 0.429665 0 0 1 0
471 27.7958 7.83833 1.21519 0 0 1 0
472 26.9761 8.65498 1.02594 0 0 1 0
469 26.996 7.78335 0.434662 0 0 1 0
396 28.6515 7.11327 1.23056 0 0 1 0
474 29.5942 8.35338 0.54453 0 0 1 0
475 29.4977 7.67807 1.27669 0 0 1 0
476 28.7798 8.55882 1.18636 0 0 1 0
473 28.6951 7.71879 0.416043 0 0 1 0
400 30.3249 7.09182 1.17973 0 0 1 0
479 31.2503 7.82438 1.3018 0 0 1 0
480 30.4298 8.49193 1.18422 0 0 1 0
477 30.6367 7.87308 0.379941 0 0 1 0
478 31.4248 8.62324 0.390578 0 0 1 0
482 1.11992 10.2843 0.274311 0 0 1 0
483 1.01298 9.37753 1.20649 0 0 1 0
484 0.252597 9.92934 0.898547 0 0 1 0
481 0.36755 9.33519 0.122595 0 0 1 0
1322 0.809164 10.1268 1.75265 0 0 1 0
485 1.75605 9.44536 0.452252 0 0 1 0
488 1.82419 10.3747 0.969875 0 0 1 0
486 2.59083 10.2762 0.0854603 0 0 1 0
487 2.37359 9.44609 1.22278 0 0 1 0
1326 2.76915 10.2344 1.66375 0 0 1 0
1329 3.19729 9.23695 1.65194 0 0 1 0
489 3.07153 9.37068 0.0798637 0 0 1 0
492 3.3764 10.0336 0.729636 0 0 1 0
491 3.93083 9.10878 0.853479 0 0 1 0
493 4.57569 9.17985 0.00735123 0 0 1 0
496 4.60565 9.97638 0.570406 0 0 1 0
1330 4.11895 9.97134 1.6172 0 0 1 0
1333 4.67201 9.06702 1.64809 0 0 1 0
495 5.32886 8.94347 0.658838 0 0 1 0
500 6.23892 9.79241 0.51167 0 0 1 0
1334 5.3095 9.83096 1.15767 0 0 1 0
1337 6.15157 9.05029 1.25461 0 0 1 0
1417 6.23427 10.5093 1.18094 0 0 1 0
499 7.16567 8.87998 0.708464 0 0 1 0
501 8.09535 9.0463 0.0802495 0 0 1 0
504 7.95867 9.92351 0.574229 0 0 1 0
1338 7.17876 9.73611 1.18759 0 0 1 0
1341 8.04515 9.16584 1.39501 0 0 1 0
503 8.93974 9.45316 0.72455 0 0 1 0
508 9.64533 10.3362 0.655345 0 0 1 0
1342 8.74986 10.2664 1.40028 0 0 1 0
1345 9.83115 9.58902 1.40598 0 0 1 0
432 11.3751 8.84686 0.729954 0 0 1 0
426 10.4031 8.88547 0.040013 0 0 1 0
507 10.4642 9.68094 0.652445 0 0 1 0
1346 10.6327 10.1668 1.62642 0 0 1 0
1349 11.3015 9.63391 1.31015 0 0 1 0
436 13.0078 8.96564 0.784741 0 0 1 0
511 12.1098 9.81377 0.682872 0 0 1 0
516 12.8214 10.4728 0.956288 0 0 1 0
1353 12.5445 9.61336 1.60503 0 0 1 0
1274 13.6911 8.84089 1.56381 0 0 1 0
440 14.4701 9.19794 0.757688 0 0 1 0
515 13.5317 9.67756 0.832116 0 0 1 0
1354 13.498 10.4076 1.70237 0 0 1 0
517 14.2759 10.1516 0.212809 0 0 1 0
444 15.9037 9.16019 1.13615 0 0 1 0
1278 15.0541 9.0672 1.75884 0 0 1 0
519 15.1352 9.85683 1.0083 0 0 1 0
521 15.695 10.1814 0.251776 0 0 1 0
523 16.5108 9.95951 0.961184 0 0 1 0
442 16.5143 9.03182 0.259112 0 0 1 0
438 15.3043 9.20714 0.0898472 0 0 1 0
452 18.3024 8.89967 0.945652 0 0 1 0
448 17.0975 9.07233 1.12972 0 0 1 0
525 17.1586 10.0288 0.207964 0 0 1 0
527 17.7795 9.87441 1.07576 0 0 1 0
446 17.7682 9.11154 0.116035 0 0 1 0
456 19.8239 8.96559 1.07128 0 0 1 0
529 18.6032 9.73724 0.300656 0 0 1 0
531 19.512 9.90276 0.854756 0 0 1 0
532 18.7284 10.4596 1.1511 0 0 1 0
1369 18.6615 9.59153 1.71891 0 0 1 0
450 19.2484 8.96684 0.211989 0 0 1 0
533 19.9932 9.79255 0.07389 0 0 1 0
535 20.9349 9.81687 0.757206 0 0 1 0
1373 20.2547 9.67159 1.68572 0 0 1 0
454 20.7963 9.08945 0.209734 0 0 1 0
460 21.6352 9.04567 0.98794 0 0 1 0
1298 22.3976 8.89936 1.59932 0 0 1 0
539 22.8355 9.69743 0.812537 0 0 1 0
540 22.1025 10.5361 0.885872 0 0 1 0
1377 21.9206 9.79926 1.55977 0 0 1 0
1378 23.037 10.5243 1.46855 0 0 1 0
458 22.7607 8.87875 0.203008 0 0 1 0
537 21.9754 9.81742 0.212099 0 0 1 0
464 23.4324 8.98904 0.982659 0 0 1 0
543 24.5162 9.57705 0.769972 0 0 1 0
1381 23.6926 9.61738 1.57959 0 0 1 0
1382 24.3766 10.3664 1.47684 0 0 1 0
1385 25.0637 9.53508 1.67575 0 0 1 0
544 23.607 10.5555 0.630744 0 0 1 0
462 24.3138 8.82642 0.209603 0 0 1 0
542 24.4428 10.3356 0.111736 0 0 1 0
468 25.2824 8.85953 1.01124 0 0 1 0
547 26.224 9.39608 0.886798 0 0 1 0
548 25.3822 10.2667 0.835515 0 0 1 0
1386 25.9688 10.3091 1.59107 0 0 1 0
1389 26.6471 9.44462 1.73985 0 0 1 0
545 25.6018 9.52349 0.179476 0 0 1 0
550 28.2862 10.152 0.305647 0 0 1 0
551 27.9652 9.36022 0.955926 0 0 1 0
552 26.9944 10.1666 0.831438 0 0 1 0
1390 27.6518 9.98114 1.54201 0 0 1 0
549 27.1861 9.38966 0.228832 0 0 1 0
554 29.6009 9.91576 0.329908 0 0 1 0
555 29.6825 9.14643 1.32918 0 0 1 0
556 28.8698 9.79309 1.29071 0 0 1 0
553 28.8871 9.25543 0.26698 0 0 1 0
559 31.251 9.29262 1.14098 0 0 1 0
560 30.3989 9.83697 1.03252 0 0 1 0
557 30.4985 9.1312 0.28691 0 0 1 0
558 31.2178 9.9685 0.0414754 0 0 1 0
563 0.884307 11.0829 0.861497 0 0 1 0
564 0.316488 11.8643 0.731748 0 0 1 0
565 1.66792 11.1804 0.0305073 0 0 1 0
1401 0.0979252 10.8853 1.70972 0 0 1 0
1402 1.01218 11.7704 1.43909 0 0 1 0
568 1.88908 11.9639 0.667798 0 0 1 0
1405 1.72025 11.0233 1.57495 0 0 1 0
567 2.57572 10.9565 0.706043 0 0 1 0
572 3.3109 11.6496 0.70437 0 0 1 0
1406 2.52012 11.7602 1.41471 0 0 1 0
1409 3.53613 10.7904 1.44896 0 0 1 0
571 4.11159 10.9261 0.546717 0 0 1 0
576 4.7892 11.6902 0.339223 0 0 1 0
1410 4.19768 11.6478 1.31608 0 0 1 0
1413 4.81597 10.843 1.47138 0 0 1 0
575 5.39439 10.7046 0.434902 0 0 1 0
580 6.16593 11.4412 0.388009 0 0 1 0
1414 5.53205 11.4075 1.24887 0 0 1 0
1497 6.25475 12.2081 1.12053 0 0 1 0
1495 5.43648 12.3206 1.67918 0 0 1 0
579 6.92391 10.7003 0.458607 0 0 1 0
584 7.93838 11.3927 0.716117 0 0 1 0
1418 7.02439 11.5601 1.11606 0 0 1 0
1421 7.64249 10.6327 1.36043 0 0 1 0
1501 8.04484 12.2669 1.29354 0 0 1 0
583 8.75665 10.878 0.688582 0 0 1 0
588 9.50691 11.8688 0.520922 0 0 1 0
1422 8.80274 11.7692 1.35257 0 0 1 0
1425 9.67507 11.1357 1.36846 0 0 1 0
512 11.2153 10.596 0.711587 0 0 1 0
586 10.2834 12.255 0.115866 0 0 1 0
587 10.3669 11.1421 0.680182 0 0 1 0
589 11.0549 11.5983 0.194953 0 0 1 0
1426 10.5173 11.8691 1.53217 0 0 1 0
1429 11.2341 11.2478 1.5177 0 0 1 0
1350 11.976 10.5949 1.59771 0 0 1 0
591 12.0903 11.4605 0.999413 0 0 1 0
593 12.5748 11.4039 0.278125 0 0 1 0
1430 12.112 12.3106 1.58763 0 0 1 0
1433 12.9977 11.6151 1.6826 0 0 1 0
510 11.7607 10.7147 0.0383943 0 0 1 0
590 11.8129 12.3439 0.271498 0 0 1 0
1358 14.9194 10.6409 1.7197 0 0 1 0
520 14.2168 10.7626 1.01656 0 0 1 0
518 14.9558 10.9953 0.27394 0 0 1 0
594 13.419 12.206 0.294374 0 0 1 0
595 13.455 11.3195 0.944061 0 0 1 0
599 14.9217 11.7683 1.00327 0 0 1 0
597 14.1738 11.6169 0.089015 0 0 1 0
514 13.4118 10.6812 0.00468363 0 0 1 0
524 15.6443 10.9195 1.05081 0 0 1 0
1362 16.4751 10.7382 1.63549 0 0 1 0
603 16.3924 11.5474 0.992531 0 0 1 0
522 16.4403 10.8138 0.15589 0 0 1 0
602 16.6776 12.1548 0.0969389 0 0 1 0
526 18.2686 10.7518 0.315828 0 0 1 0
528 17.3287 10.7543 1.02503 0 0 1 0
606 18.2373 12.1981 0.29695 0 0 1 0
607 18.1157 11.3858 1.19295 0 0 1 0
608 17.2968 12.1131 1.0179 0 0 1 0
605 17.4291 11.4396 0.214002 0 0 1 0
609 19.026 11.5039 0.45649 0 0 1 0
610 19.9822 11.9648 0.106136 0 0 1 0
611 19.6635 11.1707 1.15739 0 0 1 0
612 18.981 12.0427 1.39 0 0 1 0
530 19.5169 10.7559 0.104792 0 0 1 0
536 20.4403 10.6508 0.830456 0 0 1 0
614 21.516 11.8189 0.177245 0 0 1 0
615 21.2562 11.0335 0.907806 0 0 1 0
616 20.408 11.8293 1.05787 0 0 1 0
619 22.9838 11.3834 0.592585 0 0 1 0
620 22.1789 12.0164 0.83328 0 0 1 0
1457 22.0471 11.1259 1.54785 0 0 1 0
1458 23.1395 11.7208 1.45426 0 0 1 0
623 24.6647 11.1978 0.733723 0 0 1 0
624 24.0295 11.9347 0.833319 0 0 1 0
1461 23.9185 11.0869 1.72317 0 0 1 0
1462 24.6381 11.8746 1.71962 0 0 1 0
626 26.2388 11.8285 0.0889694 0 0 1 0
627 26.1677 10.9659 0.639512 0 0 1 0
628 25.4647 11.9029 0.890297 0 0 1 0
1465 25.2805 11.0051 1.63227 0 0 1 0
1466 26.1994 11.6412 1.61836 0 0 1 0
625 25.4203 11.1028 0.0258328 0 0 1 0
629 27.4806 10.9749 0.222741 0 0 1 0
631 28.1753 10.8126 0.955353 0 0 1 0
632 27.1163 11.5707 0.810264 0 0 1 0
1469 26.8876 10.8282 1.54303 0 0 1 0
1470 28.0034 11.5015 1.47807 0 0 1 0
709 27.2403 12.2814 0.0549416 0 0 1 0
711 28.1487 12.2478 0.705241 0 0 1 0
1549 27.2261 12.2984 1.52476 0 0 1 0
635 29.6024 10.5987 0.964666 0 0 1 0
633 29.0843 10.8079 0.126121 0 0 1 0
634 30.0142 11.448 0.200894 0 0 1 0
636 29.027 11.6131 0.729414 0 0 1 0
1474 29.6446 11.6164 1.41109 0 0 1 0
637 30.712 10.6944 0.164178 0 0 1 0
639 31.3875 10.6399 0.994119 0 0 1 0
640 30.8268 11.4119 0.768316 0 0 1 0
1477 30.2837 10.6379 1.55752 0 0 1 0
1478 31.1984 11.737 1.47761 0 0 1 0
643 1.13682 12.8099 0.40217 0 0 1 0
644 0.509747 13.7264 0.353066 0 0 1 0
1481 0.482049 12.6523 1.33598 0 0 1 0
1482 1.14086 13.5857 1.07465 0 0 1 0
648 2.02605 13.5951 0.0514267 0 0 1 0
1485 1.7309 12.7253 1.26502 0 0 1 0
647 2.5702 12.6974 0.404418 0 0 1 0
652 3.2224 13.4346 0.560222 0 0 1 0
1486 2.41394 13.4305 1.22965 0 0 1 0
1489 3.18984 12.4814 1.27431 0 0 1 0
651 3.90604 12.4375 0.332755 0 0 1 0
656 4.71541 13.3639 0.114075 0 0 1 0
1490 4.04445 13.2162 1.12496 0 0 1 0
1493 4.61524 12.4602 1.09881 0 0 1 0
1573 4.91483 14.0502 0.967971 0 0 1 0
655 5.40272 12.5268 0.401777 0 0 1 0
660 6.38981 13.1223 0.384615 0 0 1 0
1494 5.57052 13.2306 1.0342 0 0 1 0
735 5.76935 13.9823 0.214111 0 0 1 0
1577 6.45429 13.9552 1.03291 0 0 1 0
659 7.07599 12.4039 0.476696 0 0 1 0
664 7.96078 13.4073 0.407944 0 0 1 0
1498 7.34813 13.0508 1.20568 0 0 1 0
739 7.1891 14.0984 0.453594 0 0 1 0
1581 7.97663 13.9471 1.27615 0 0 1 0
663 8.63216 12.717 0.637914 0 0 1 0
668 9.44503 13.4479 0.44985 0 0 1 0
1502 8.93695 13.309 1.33907 0 0 1 0
1505 9.6154 12.515 1.38306 0 0 1 0
592 11.0864 12.3741 0.954094 0 0 1 0
667 10.2708 12.9073 0.823199 0 0 1 0
672 11.2466 13.8783 0.66118 0 0 1 0
1506 10.5672 13.6244 1.43869 0 0 1 0
596 12.7251 12.4829 0.847683 0 0 1 0
671 11.8204 13.1895 0.794407 0 0 1 0
673 12.6352 13.4654 0.131866 0 0 1 0
676 12.6753 14.0093 1.11987 0 0 1 0
1510 11.8584 13.9267 1.62434 0 0 1 0
675 13.2343 13.2705 1.02959 0 0 1 0
600 14.1554 12.3753 0.994802 0 0 1 0
677 14.0304 13.2174 0.339444 0 0 1 0
679 14.8228 13.2535 1.01098 0 0 1 0
678 14.8665 13.818 0.167348 0 0 1 0
598 14.913 12.4603 0.108402 0 0 1 0
674 13.5415 14.0828 0.123918 0 0 1 0
680 13.9581 14.0918 1.18846 0 0 1 0
1438 15.045 12.6947 1.72232 0 0 1 0
604 15.7008 12.402 0.738125 0 0 1 0
1442 16.3159 12.3639 1.59971 0 0 1 0
684 15.7393 13.7108 0.907589 0 0 1 0
1521 15.9609 13.3138 1.66769 0 0 1 0
683 16.6702 13.0784 0.751182 0 0 1 0
681 15.9055 13.1317 0.0412274 0 0 1 0
1522 16.7734 13.9029 1.64309 0 0 1 0
687 18.2702 12.7839 1.07986 0 0 1 0
688 17.654 13.9054 1.13941 0 0 1 0
1525 17.36 12.9877 1.55243 0 0 1 0
682 17.0036 13.76 0.172621 0 0 1 0
685 17.5662 12.9328 0.182832 0 0 1 0
686 18.5806 13.4329 0.346901 0 0 1 0
689 19.2894 12.5811 0.411016 0 0 1 0
692 19.2684 13.3815 1.07561 0 0 1 0
691 19.9872 12.7327 1.12856 0 0 1 0
690 20.1679 13.5462 0.243518 0 0 1 0
693 20.7 12.6827 0.0999099 0 0 1 0
694 21.7077 13.3099 0.131266 0 0 1 0
695 21.2975 12.411 0.875788 0 0 1 0
696 20.9082 13.4196 0.907757 0 0 1 0
1534 21.581 13.1029 1.49061 0 0 1 0
699 23.3438 12.6785 0.451688 0 0 1 0
700 22.4925 13.5156 0.303288 0 0 1 0
1537 22.4382 12.6547 1.22326 0 0 1 0
1538 23.1408 13.414 1.09013 0 0 1 0
1617 22.2802 14.0759 1.30689 0 0 1 0
703 24.7825 12.7628 0.489903 0 0 1 0
704 23.8708 13.5268 0.225948 0 0 1 0
1541 23.9248 12.7025 1.36441 0 0 1 0
1542 24.7244 13.2416 1.35584 0 0 1 0
783 24.5772 13.9944 0.787163 0 0 1 0
706 26.6079 13.1622 0.118101 0 0 1 0
707 26.4177 12.4201 0.902953 0 0 1 0
708 25.7114 13.174 0.775672 0 0 1 0
1545 25.4227 12.5216 1.67069 0 0 1 0
1546 26.4654 13.3264 1.43368 0 0 1 0
787 26.2189 14.0478 0.738107 0 0 1 0
1625 25.2455 14.0214 1.63999 0 0 1 0
712 27.4852 13.2226 0.493244 0 0 1 0
1550 27.9453 13.0183 1.30011 0 0 1 0
791 28.1563 13.9584 0.463173 0 0 1 0
1629 27.259 13.954 1.23196 0 0 1 0
716 29.2131 13.1525 0.433997 0 0 1 0
1553 28.9498 12.4747 1.27276 0 0 1 0
1554 29.8196 13.1701 1.20585 0 0 1 0
1633 28.9216 13.8612 1.15898 0 0 1 0
795 29.8057 14.0661 0.312757 0 0 1 0
715 30.0913 12.3501 0.550294 0 0 1 0
719 31.7287 12.7172 0.333603 0 0 1 0
720 30.7962 13.3015 0.315268 0 0 1 0
1557 30.6557 12.5155 1.19597 0 0 1 0
1558 31.4292 13.436 1.03503 0 0 1 0
1637 30.5104 13.9286 1.08077 0 0 1 0
723 1.19675 14.3549 0.25577 0 0 1 0
724 0.159909 15.2708 0.457481 0 0 1 0
802 1.00982 15.6443 0.316477 0 0 1 0
1561 0.206538 14.4114 1.19976 0 0 1 0
1562 0.78544 15.1764 1.2936 0 0 1 0
1568 1.45443 14.8648 1.70063 0 0 1 0
728 1.89767 15.134 0.173788 0 0 1 0
1565 1.7999 14.2572 1.01337 0 0 1 0
727 2.63361 14.2969 0.200904 0 0 1 0
804 2.54995 15.8455 0.279852 0 0 1 0
1566 2.36595 15.1416 1.07187 0 0 1 0
1569 3.19045 14.3237 1.10337 0 0 1 0
1644 2.35063 15.7549 1.73211 0 0 1 0
732 3.40559 15.0919 0.408722 0 0 1 0