ITEM: TIMESTEP
1000
ITEM: NUMBER OF ATOMS
32000
ITEM: BOX BOUNDS pp pp pp
0.0000000000000000e+00 3.1748021039364001e+01
0.0000000000000000e+00 3.1748021039364001e+01
0.0000000000000000e+00 3.1748021039364001e+01
ITEM: ATOMS id x y z c_phase c_nbond c_rho v_omega
4 0.117045 1.1026 0.464414 0 0 1.00001 3.31937e-07
83 0.974753 1.66851 0.778048 0 0 1.00001 3.84863e-07
842 0.71534 0.79355 1.41296 0 0 1.00001 3.65006e-07
921 0.00408173 1.60278 1.37444 0 0 1.00001 3.202e-07
3 0.730583 0.0633615 0.616082 0 0 1.00001 3.62547e-07
8 1.71079 0.808981 1.01552 0 0 1.00001 4.15591e-07
85 1.80123 1.47469 0.221098 0 0 1.00001 4.35885e-07
925 1.82085 1.66047 1.76128 0 0 1.00001 4.63311e-07
6 2.5215 0.74899 0.203848 0 0 1.00001 4.49706e-07
7 2.59205 0.0537553 1.0373 0 0 1.00001 4.31929e-07
87 2.64978 1.54094 0.882881 0 0 1.00001 4.93114e-07
846 2.66891 0.815431 1.74572 0 0 1.00001 4.79646e-07
12 3.43434 0.933542 0.956425 0 0 1.00001 5.00129e-07
849 3.49973 0.0923743 1.70578 0 0 1.00001 4.6551e-07
929 3.60703 1.70785 1.72001 0 0 1.00001 6.11227e-07
10 4.10623 0.858146 0.325321 0 0 1.00001 5.11269e-07
16 4.962 0.567618 1.17468 0 0 1.00001 5.11141e-07
93 4.91987 1.59968 0.383559 0 0 1.00001 6.33669e-07
850 4.34759 0.941356 1.62895 0 0 1.00001 5.61798e-07
9 3.47661 0.111218 0.171065 0 0 1.00001 4.49222e-07
14 5.6477 0.645351 0.325846 0 0 1.00001 5.08516e-07
95 5.88443 1.31025 0.938131 0 0 1.00001 6.48332e-07
97 6.575 1.39078 0.218404 0 0 1.00001 6.71436e-07
854 5.78403 0.460362 1.69907 0 0 1.00001 5.19138e-07
933 5.03159 1.72392 1.4361 0 0 1.00001 7.11879e-07
20 6.71396 0.390009 0.86535 0 0 1.00001 4.47667e-07
937 6.69126 1.00933 1.69386 0 0 1.00001 6.52944e-07
24 8.26784 0.408506 1.07341 0 0 1.00001 3.78007e-07
99 7.36795 1.22255 0.954262 0 0 1.00001 6.68617e-07
101 8.24713 1.39058 0.236818 0 0 1.00001 7.14588e-07
941 8.12878 1.27183 1.60666 0 0 1.00001 7.68554e-07
18 7.58253 0.647484 0.14033 0 0 1.00001 4.7541e-07
22 8.85837 0.50811 0.273954 0 0 1.00001 3.58791e-07
28 9.5528 0.338181 0.888705 0 0 1.00001 2.38268e-07
103 9.02583 1.30681 1.11336 0 0 1.00001 7.32488e-07
945 9.57415 0.972812 1.76346 0 0 1.00001 6.3514e-07
105 9.63985 1.37434 0.0901323 0 0 1.00001 7.1236e-07
32 11.2123 0.215481 0.632708 0 0 1.00001 -1.56454e-08
107 10.3635 1.04706 0.823195 0 0 1.00001 5.4325e-07
866 10.5227 0.195907 1.44546 0 0 1.00001 7.19516e-08
949 11.2854 1.01809 1.41795 0 0 1.00001 5.5054e-07
946 10.5796 1.67671 1.73005 0 0 1.00001 1.12258e-06
26 10.2428 0.367418 0.0780453 0 0 1.00001 1.73373e-07
36 12.8752 0.21137 0.63683 0 0 1.00001 -1.99153e-07
111 12.0454 1.07372 0.506747 0 0 1.00001 4.66794e-07
870 12.1313 0.316079 1.29964 0 0 1.00001 -3.83851e-08
953 12.7192 1.19831 1.37241 0 0 1.00001 6.42017e-07
40 14.3722 0.318281 0.764748 0 0 1.00001 -2.23695e-07
115 13.592 1.11269 0.843703 0 0 1.00001 4.67477e-07
117 14.0396 1.55926 0.167544 0 0 1.00001 8.06915e-07
874 13.607 0.359576 1.63522 0 0 1.00001 -1.07297e-07
957 14.3773 1.14929 1.47656 0 0 1.00001 5.7961e-07
119 14.8759 1.55315 0.663067 0 0 1.00001 8.37085e-07
44 15.7056 0.770427 0.788292 0 0 1.00001 1.37806e-07
123 16.5529 1.54438 0.681463 0 0 1.00001 8.62628e-07
878 15.1417 0.464051 1.64147 0 0 1.00001 -6.428e-08
882 16.5465 0.712208 1.3421 0 0 1.00001 1.66886e-07
961 15.6338 1.48535 1.39169 0 0 1.00001 9.35437e-07
38 15.1044 0.711503 0.0678317 0 0 1.00001 3.9946e-08
48 17.254 0.732155 0.547668 0 0 1.00001 1.41456e-07
127 17.9229 1.58109 0.757345 0 0 1.00001 9.58661e-07
886 17.9156 0.742988 1.42795 0 0 1.00001 2.95492e-07
965 17.2201 1.74888 1.5628 0 0 1.00001 1.32772e-06
51 19.5368 0.0167889 0.662743 0 0 1.00001 -1.49367e-07
52 18.7915 0.725095 0.684869 0 0 1.00001 2.62192e-07
131 19.5395 1.55498 0.841737 0 0 1.00001 1.01146e-06
889 19.0272 0.158703 1.54495 0 0 1.00001 -7.04709e-08
890 19.5932 0.967677 1.6895 0 0 1.00001 6.87491e-07
969 18.6564 1.51313 1.50036 0 0 1.00001 1.09674e-06
55 21.0888 0.349997 1.06743 0 0 1.00001 2.961e-07
56 20.2491 0.776497 0.980031 0 0 1.00001 4.70511e-07
135 21.1063 1.6574 0.951593 0 0 1.00001 1.14531e-06
54 21.1873 0.765679 0.218897 0 0 1.00001 4.87527e-07
133 20.3457 1.51485 0.193808 0 0 1.00001 9.29066e-07
57 22.0087 0.262672 0.539765 0 0 1.00001 3.22156e-07
59 22.7914 0.430506 1.40722 0 0 1.00001 5.56302e-07
60 22.1107 1.14788 1.32977 0 0 1.00001 8.93123e-07
137 21.9984 1.59974 0.538645 0 0 1.00001 1.04545e-06
58 22.9159 1.07475 0.445284 0 0 1.00001 7.65219e-07
63 24.2283 0.380423 1.45192 0 0 1.00001 6.24404e-07
61 23.5674 0.357712 0.573713 0 0 1.00001 5.01967e-07
62 24.437 1.18705 0.754762 0 0 1.00001 8.44754e-07
64 23.476 1.25014 1.40273 0 0 1.00001 9.6882e-07
65 24.9554 0.315853 0.552003 0 0 1.00001 5.59155e-07
67 26.0089 0.383549 1.17145 0 0 1.00001 6.28731e-07
68 25.1695 1.12605 1.48077 0 0 1.00001 8.85942e-07
147 25.9307 1.73505 1.35792 0 0 1.00001 1.01152e-06
66 25.8922 0.929411 0.432151 0 0 1.00001 7.16088e-07
70 27.5742 1.28049 0.389125 0 0 1.00001 7.01458e-07
71 27.6148 0.509419 0.87432 0 0 1.00001 5.947e-07
72 26.7564 1.02831 1.26342 0 0 1.00001 7.53226e-07
913 28.3755 0.337661 1.39814 0 0 1.00001 5.66129e-07
69 26.793 0.240479 0.226694 0 0 1.00001 5.51499e-07
76 28.6496 1.24274 0.742346 0 0 1.00001 6.25043e-07
914 29.3918 0.945848 1.56876 0 0 1.00001 5.70999e-07
993 28.5235 1.71944 1.49752 0 0 1.00001 7.49548e-07
917 29.814 0.174013 1.46119 0 0 1.00001 4.64473e-07
75 29.2741 0.354797 0.615304 0 0 1.00001 4.85402e-07
841 31.5881 0.266157 1.25665 0 0 1.00001 3.26403e-07
79 30.7023 0.490145 0.470814 0 0 1.00001 3.96278e-07
80 30.1016 1.19887 0.774169 0 0 1.00001 5.00281e-07
918 30.8656 0.972023 1.39387 0 0 1.00001 4.34529e-07
82 1.11145 2.43612 0.129321 0 0 1.00001 4.08762e-07
84 0.134092 2.3822 0.812287 0 0 1.00001 3.2671e-07
163 1.28907 3.23769 0.94924 0 0 1.00001 4.45108e-07
922 1.14042 2.36085 1.59167 0 0 1.00001 4.20131e-07
1001 0.387354 3.03015 1.54949 0 0 1.00001 3.51849e-07
161 0.332921 3.09596 0.131375 0 0 1.00001 3.47148e-07
88 1.91034 2.41867 0.783825 0 0 1.00001 4.75387e-07
167 2.65907 3.28029 0.860934 0 0 1.00001 6.16067e-07
926 2.6699 2.22917 1.53383 0 0 1.00001 5.61439e-07
1009 3.25847 3.42661 1.64948 0 0 1.00001 7.84114e-07
86 2.72665 2.38165 0.055763 0 0 1.00001 5.46726e-07
92 3.38247 2.55408 0.779368 0 0 1.00001 6.33369e-07
91 4.00726 1.84087 0.711247 0 0 1.00001 6.10926e-07
96 4.91423 2.57261 0.815742 0 0 1.00001 8.21267e-07
171 4.20196 3.3174 0.749526 0 0 1.00001 8.53236e-07
930 4.13298 2.64096 1.58336 0 0 1.00001 7.92114e-07
94 5.65082 2.44251 0.132798 0 0 1.00001 8.61875e-07
100 6.55805 2.18038 0.772691 0 0 1.00001 9.12729e-07
175 5.64915 3.19574 0.952595 0 0 1.00001 1.11063e-06
934 5.86136 2.19406 1.49682 0 0 1.00001 9.13821e-07
1017 6.5208 3.06665 1.55581 0 0 1.00001 1.34868e-06
177 6.65062 2.92756 0.134274 0 0 1.00001 1.14675e-06
98 7.45425 2.22556 0.139879 0 0 1.00001 9.93893e-07
104 8.08228 2.20176 0.930493 0 0 1.00001 1.09919e-06
179 7.40163 3.06803 0.93414 0 0 1.00001 1.41203e-06
938 7.29953 2.06006 1.56869 0 0 1.00001 1.04745e-06
1021 8.1858 3.00146 1.65226 0 0 1.00001 1.7289e-06
181 8.26957 2.97086 0.0392901 0 0 1.00001 1.45154e-06
102 8.90402 2.08666 0.252451 0 0 1.00001 1.05924e-06
108 9.7725 2.02423 1.11005 0 0 1.00001 1.18091e-06
183 8.92694 2.97224 0.928831 0 0 1.00001 1.66681e-06
942 9.03081 2.22029 1.70415 0 0 1.00001 1.38129e-06
185 9.56113 2.90538 0.213204 0 0 1.00001 1.63661e-06
106 10.2833 2.11331 0.214362 0 0 1.00001 1.17343e-06
112 11.1582 1.8257 0.771209 0 0 1.00001 1.0614e-06
187 10.6216 2.80779 0.921684 0 0 1.00001 1.84746e-06
1029 11.4447 2.82928 1.57508 0 0 1.00001 2.25285e-06
116 12.6736 1.94085 0.593997 0 0 1.00001 1.18021e-06
191 11.9281 2.64065 0.742447 0 0 1.00001 1.81755e-06
950 11.9239 1.92025 1.46525 0 0 1.00001 1.31831e-06
1033 12.8453 3.01734 1.68624 0 0 1.00001 2.80431e-06
195 13.1794 3.02998 0.849009 0 0 1.00001 2.42432e-06
954 13.3783 1.99094 1.48078 0 0 1.00001 1.47321e-06
120 14.0207 2.44414 0.927273 0 0 1.00001 1.82498e-06
1037 14.0284 3.38337 1.55739 0 0 1.00001 3.42817e-06
199 14.6965 3.43677 0.885142 0 0 1.00001 3.15302e-06
958 14.7825 2.29745 1.44831 0 0 1.00001 1.89252e-06
118 14.8418 2.51476 0.136785 0 0 1.00001 1.78948e-06
197 14.1593 3.22584 0.0328526 0 0 1.00001 2.58491e-06
114 13.4136 2.29366 0.0592426 0 0 1.00001 1.48825e-06
124 15.6994 2.44355 0.692898 0 0 1.00001 1.81944e-06
203 16.3033 3.20087 0.662424 0 0 1.00001 2.78125e-06
962 16.3082 2.47948 1.52589 0 0 1.00001 2.21685e-06
1041 15.37 3.25714 1.50214 0 0 1.00001 3.30886e-06
201 15.5708 3.25833 0.0196024 0 0 1.00001 2.71807e-06
128 17.0647 2.35031 0.68297 0 0 1.00001 1.7319e-06
207 17.9443 2.92617 0.699799 0 0 1.00001 2.4031e-06
966 18.0195 2.43931 1.58124 0 0 1.00001 2.17885e-06
1045 17.0923 3.11628 1.49511 0 0 1.00001 3.09859e-06
132 18.891 2.35757 1.01372 0 0 1.00001 1.82955e-06
211 19.7032 3.24298 1.27798 0 0 1.00001 2.92396e-06
209 18.8843 2.99618 0.196302 0 0 1.00001 2.33371e-06
130 19.5872 2.34243 0.101728 0 0 1.00001 1.61643e-06
973 20.3252 1.78887 1.72441 0 0 1.00001 1.47081e-06
134 21.1569 2.41684 0.45854 0 0 1.00001 1.65421e-06
136 20.1951 2.46902 1.11442 0 0 1.00001 1.91422e-06
215 21.3106 3.2951 1.39322 0 0 1.00001 2.74297e-06
213 20.4226 2.99338 0.33519 0 0 1.00001 2.2169e-06
139 22.8724 2.07036 1.50873 0 0 1.00001 1.49783e-06
138 22.9721 2.6023 0.735656 0 0 1.00001 1.65497e-06
140 22.0965 2.49949 1.23794 0 0 1.00001 1.80474e-06
217 21.9903 3.20078 0.599049 0 0 1.00001 2.22961e-06
16179 22.6778 3.40156 0.0762548 0 0 1.00001 2.18971e-06
141 23.7442 1.80868 0.624121 0 0 1.00001 1.11734e-06
143 24.4294 1.98796 1.61094 0 0 1.00001 1.31476e-06
142 24.3426 2.68327 0.775314 0 0 1.00001 1.50564e-06
144 23.6893 2.90343 1.53631 0 0 1.00001 1.94025e-06
223 24.4735 3.51129 1.5571 0 0 1.00001 2.15385e-06
16108 24.9568 2.84589 0.014922 0 0 1.00001 1.4209e-06
149 26.5489 1.79436 0.511459 0 0 1.00001 8.93853e-07
145 25.1327 1.85635 0.509546 0 0 1.00001 1.03267e-06
146 25.7924 2.6123 0.707588 0 0 1.00001 1.24591e-06
148 25.1586 2.55588 1.52546 0 0 1.00001 1.4555e-06
227 25.7221 3.49856 1.51219 0 0 1.00001 1.77445e-06
152 26.5371 2.56038 1.53049 0 0 1.00001 1.21872e-06
229 26.1693 3.50104 0.599181 0 0 1.00001 1.49657e-06
151 27.5045 1.98571 1.23792 0 0 1.00001 8.89486e-07
153 28.2496 2.09041 0.343839 0 0 1.00001 7.72131e-07
150 27.0874 2.69267 0.645438 0 0 1.00001 1.06431e-06
231 27.2005 3.35433 1.41686 0 0 1.00001 1.32127e-06
156 28.2544 2.75824 1.20642 0 0 1.00001 9.4195e-07
233 27.9827 3.22021 0.326565 0 0 1.00001 1.0286e-06
997 29.9576 1.80922 1.70764 0 0 1.00001 6.11533e-07
155 29.4484 2.04713 0.879775 0 0 1.00001 6.50258e-07
154 29.1963 2.65915 0.290788 0 0 1.00001 7.41362e-07
235 29.2502 3.26532 1.17376 0 0 1.00001 8.6413e-07
159 30.9121 1.98511 0.924256 0 0 1.00001 4.86564e-07
160 30.1823 2.71112 1.00192 0 0 1.00001 6.37813e-07
239 31.0254 3.3532 0.971114 0 0 1.00001 5.80058e-07
998 30.9872 2.69499 1.72652 0 0 1.00001 5.64739e-07
237 30.11 3.25964 0.132393 0 0 1.00001 6.86123e-07
157 30.4123 1.90919 0.0256566 0 0 1.00001 5.18858e-07
158 31.1441 2.66412 0.0762136 0 0 1.00001 4.97248e-07
164 0.294519 3.78516 0.918645 0 0 1.00001 3.36508e-07
241 0.143727 4.59465 0.482183 0 0 1.00001 3.10539e-07
243 1.14098 4.67104 0.986729 0 0 1.00001 4.70825e-07
244 0.0891789 5.26703 1.2777 0 0 1.00001 2.9626e-07
162 1.04136 3.86428 0.0596897 0 0 1.00001 4.29251e-07
168 1.84182 4.04609 0.847188 0 0 1.00001 5.51775e-07
247 2.54108 4.85588 1.13753 0 0 1.00001 7.78516e-07
166 2.6501 4.14476 0.206792 0 0 1.00001 6.8503e-07
245 1.8982 4.969 0.278477 0 0 1.00001 6.14105e-07
249 3.40828 4.86185 0.161705 0 0 1.00001 9.44617e-07
172 3.49452 4.07671 0.885991 0 0 1.00001 8.60204e-07
176 4.91284 3.99988 1.18351 0 0 1.00001 1.21401e-06
251 4.04717 4.87992 1.1465 0 0 1.00001 1.20203e-06
170 4.26074 4.18498 0.149043 0 0 1.00001 1.01863e-06
253 5.00996 4.73987 0.34113 0 0 1.00001 1.37761e-06
174 5.77772 3.93761 0.198746 0 0 1.00001 1.32596e-06
180 6.48927 3.76587 0.772197 0 0 1.00001 1.48913e-06
255 5.6808 4.73612 1.02501 0 0 1.00001 1.69692e-06
1097 6.66378 4.51117 1.64298 0 0 1.00001 2.17471e-06
260 6.68122 5.13118 0.885442 0 0 1.00001 2.2885e-06
184 8.19859 3.89161 0.700904 0 0 1.00001 2.05739e-06
259 7.40885 4.46038 0.546931 0 0 1.00001 2.12072e-06
1018 7.39934 3.86994 1.49701 0 0 1.00001 2.00565e-06
1101 8.20066 4.61058 1.48695 0 0 1.00001 2.91e-06
188 9.89793 3.57751 0.885845 0 0 1.00001 2.36413e-06
263 9.07962 4.56505 0.821509 0 0 1.00001 2.96516e-06
265 9.86309 4.50258 0.1265 0 0 1.00001 3.07699e-06
1022 9.07872 3.76214 1.49839 0 0 1.00001 2.52835e-06
1105 9.86952 4.34568 1.65557 0 0 1.00001 3.57326e-06
182 8.98573 3.86779 0.0632777 0 0 1.00001 2.20686e-06
192 11.4083 3.64451 0.778574 0 0 1.00001 2.79808e-06
267 10.5897 4.66595 0.906493 0 0 1.00001 3.79851e-06
269 11.3873 4.69352 0.230928 0 0 1.00001 3.91537e-06
1026 10.7064 3.56648 1.58809 0 0 1.00001 2.91956e-06
1109 11.366 4.37115 1.70569 0 0 1.00001 4.35389e-06
272 11.3903 5.2716 0.984067 0 0 1.00001 5.09743e-06
186 10.5829 3.84841 0.176281 0 0 1.00001 2.67533e-06
196 12.517 3.57688 0.814975 0 0 1.00001 2.96925e-06
271 12.1923 4.54988 1.00048 0 0 1.00001 4.35576e-06
1113 12.7377 4.99678 1.68934 0 0 1.00001 6.09424e-06
275 13.2266 4.67835 0.800488 0 0 1.00001 4.74806e-06
273 12.6441 4.61838 0.063496 0 0 1.00001 4.23092e-06
200 13.9898 4.12793 0.696794 0 0 1.00001 3.99695e-06
1034 13.4842 4.2175 1.59346 0 0 1.00001 4.75669e-06
1117 14.206 5.11803 1.5204 0 0 1.00001 6.6347e-06
279 14.9413 5.01125 0.812083 0 0 1.00001 5.7765e-06
1038 14.9654 4.4165 1.59462 0 0 1.00001 5.44827e-06
277 14.1413 4.90604 0.0602814 0 0 1.00001 5.09393e-06
198 14.9616 4.19395 0.0969357 0 0 1.00001 4.04273e-06
204 15.6692 4.06633 0.926559 0 0 1.00001 4.22116e-06
281 15.8806 4.77581 0.186873 0 0 1.00001 5.09176e-06
283 16.5945 4.58045 0.900555 0 0 1.00001 5.09112e-06
1042 16.3194 3.95883 1.69052 0 0 1.00001 4.74125e-06
1121 15.8127 5.0531 1.6412 0 0 1.00001 6.97368e-06
208 17.2695 3.8338 0.811537 0 0 1.00001 3.74969e-06
287 18.0874 4.48883 1.09837 0 0 1.00001 4.93586e-06
1046 17.9533 3.63821 1.65619 0 0 1.00001 3.99891e-06
285 17.4577 4.57736 0.0153024 0 0 1.00001 4.65441e-06
206 18.1354 3.85476 0.0588049 0 0 1.00001 3.47673e-06
212 18.8785 3.70695 0.950514 0 0 1.00001 3.46465e-06
289 18.8244 4.6098 0.362244 0 0 1.00001 4.55272e-06
291 19.6916 4.67918 1.08076 0 0 1.00001 4.83652e-06
292 18.7872 5.27747 1.20135 0 0 1.00001 6.32616e-06
210 19.5993 3.76744 0.227834 0 0 1.00001 3.17806e-06
216 20.4391 3.82233 1.23351 0 0 1.00001 3.47173e-06
295 20.8857 4.71934 1.39424 0 0 1.00001 4.69698e-06
297 21.5786 4.95194 0.810719 0 0 1.00001 4.31077e-06
214 21.0831 3.93178 0.512721 0 0 1.00001 3.13021e-06
293 20.1349 4.78605 0.353189 0 0 1.00001 4.45528e-06
219 22.8212 3.63234 1.42142 0 0 1.00001 2.69904e-06
220 21.9415 4.13375 1.31085 0 0 1.00001 3.43559e-06
299 22.4716 5.17807 1.27314 0 0 1.00001 4.43158e-06
218 22.6128 4.34755 0.510409 0 0 1.00001 3.09206e-06
221 23.5742 3.63943 0.782848 0 0 1.00001 2.26172e-06
222 24.3368 4.32109 0.625261 0 0 1.00001 2.47243e-06
224 23.4688 4.55009 1.33373 0 0 1.00001 3.26456e-06
305 24.8528 5.25775 0.567028 0 0 1.00001 2.91288e-06
301 23.5528 5.06453 0.533908 0 0 1.00001 3.38488e-06
228 25.0095 4.50113 1.62347 0 0 1.00001 2.67032e-06
225 25.0636 3.68072 0.802255 0 0 1.00001 1.88241e-06
303 24.364 5.28925 1.43394 0 0 1.00001 3.55198e-06
307 25.6914 5.13956 1.34284 0 0 1.00001 2.66887e-06
232 26.3583 4.2908 1.3717 0 0 1.00001 1.91603e-06
309 26.5035 4.97309 0.640945 0 0 1.00001 2.03601e-06
226 25.5292 4.40136 0.388468 0 0 1.00001 2.07102e-06
311 27.3311 4.87012 1.40578 0 0 1.00001 1.82483e-06
236 27.9632 3.97675 1.10419 0 0 1.00001 1.27789e-06
313 28.2779 4.73516 0.706478 0 0 1.00001 1.35176e-06
230 27.0681 4.04358 0.570246 0 0 1.00001 1.46906e-06
234 28.9328 3.77046 0.487287 0 0 1.00001 9.6779e-07
315 29.0881 4.52351 1.33092 0 0 1.00001 1.14576e-06
240 29.9986 4.07227 1.02316 0 0 1.00001 8.31231e-07
238 31.0303 3.97406 0.373408 0 0 1.00001 6.15963e-07
317 30.2053 4.67799 0.491366 0 0 1.00001 8.44281e-07
319 30.979 4.59957 1.41133 0 0 1.00001 7.17734e-07
242 0.908966 5.53219 0.461742 0 0 1.00001 4.41004e-07
248 1.53228 5.51194 1.3798 0 0 1.00001 6.13156e-07
323 0.794402 6.22036 1.2769 0 0 1.00001 4.50737e-07
324 0.257698 6.91763 1.50747 0 0 1.00001 3.12321e-07
322 0.970649 6.94555 0.573503 0 0 1.00001 4.90976e-07
328 1.70599 7.02893 1.23824 0 0 1.00001 7.79553e-07
325 1.8965 6.19976 0.519083 0 0 1.00001 7.174e-07
252 3.10542 5.6171 1.30066 0 0 1.00001 1.08331e-06
327 2.26428 6.15355 1.40989 0 0 1.00001 9.00749e-07
332 3.25507 6.96221 1.12764 0 0 1.00001 1.41493e-06
246 2.68239 5.61288 0.273661 0 0 1.00001 8.68873e-07
329 3.39565 6.28183 0.500589 0 0 1.00001 1.23867e-06
250 4.19036 5.46237 0.325854 0 0 1.00001 1.31676e-06
256 4.93494 5.42854 1.31786 0 0 1.00001 1.75087e-06
331 4.13681 6.09642 1.22791 0 0 1.00001 1.60815e-06
333 4.82626 6.23338 0.333908 0 0 1.00001 1.84136e-06
336 4.7738 6.7991 1.1598 0 0 1.00001 2.21666e-06
330 4.00329 7.02494 0.221854 0 0 1.00001 1.6968e-06
254 5.78622 5.42155 0.301917 0 0 1.00001 1.93925e-06
335 5.69409 6.24306 0.963313 0 0 1.00001 2.43173e-06
1177 6.45857 5.9838 1.5969 0 0 1.00001 3.04351e-06
340 6.4331 6.86879 1.00972 0 0 1.00001 3.37787e-06
337 6.37837 6.04087 0.154707 0 0 1.00001 2.56496e-06
334 5.55056 7.05171 0.147247 0 0 1.00001 2.6324e-06
264 8.21412 5.31372 0.694448 0 0 1.00001 3.17127e-06
339 7.32825 6.15872 0.754448 0 0 1.00001 3.36489e-06
1098 7.39235 5.41787 1.49159 0 0 1.00001 3.15469e-06
1181 8.2397 6.1096 1.49184 0 0 1.00001 4.4658e-06
344 8.01439 6.85298 0.729149 0 0 1.00001 4.56444e-06
1178 7.28286 6.86301 1.59623 0 0 1.00001 4.52132e-06
258 7.33079 5.35711 0.0462544 0 0 1.00001 2.6296e-06
268 9.76867 5.31885 0.792789 0 0 1.00001 4.11593e-06
343 8.88099 6.18799 0.737104 0 0 1.00001 4.53337e-06
1102 9.05515 5.32647 1.59749 0 0 1.00001 4.25243e-06
1185 9.73958 6.18965 1.46761 0 0 1.00001 5.86792e-06
1182 9.09467 6.94924 1.46322 0 0 1.00001 6.39669e-06
345 9.76408 6.23136 0.094362 0 0 1.00001 5.04137e-06
262 8.99795 5.4643 0.01291 0 0 1.00001 3.64431e-06
347 10.5842 6.02124 0.964591 0 0 1.00001 5.76822e-06
349 11.3138 6.37059 0.0779478 0 0 1.00001 6.39727e-06
346 10.5198 6.94068 0.154745 0 0 1.00001 6.7475e-06
1186 10.4702 6.92467 1.49641 0 0 1.00001 7.92975e-06
270 12.0003 5.62678 0.18347 0 0 1.00001 5.59265e-06
276 12.6769 5.81786 0.862132 0 0 1.00001 6.66033e-06
351 11.7787 6.20668 1.05324 0 0 1.00001 7.05997e-06
1114 13.3237 5.86614 1.55519 0 0 1.00001 8.05234e-06
355 13.3523 6.58233 0.814021 0 0 1.00001 8.59262e-06
274 13.3222 5.53821 0.0428697 0 0 1.00001 5.98536e-06
280 14.0631 5.71534 0.773092 0 0 1.00001 6.95223e-06
1197 14.3299 6.65136 1.40699 0 0 1.00001 1.02672e-05
357 14.1317 6.38444 0.0385156 0 0 1.00001 7.98554e-06
278 15.0293 5.64362 0.0348995 0 0 1.00001 6.64243e-06
284 15.832 5.73813 0.958677 0 0 1.00001 7.55299e-06
359 15.0489 6.45076 0.80724 0 0 1.00001 8.93417e-06
363 16.493 6.45285 1.14064 0 0 1.00001 9.53652e-06
1118 15.1079 5.87577 1.69841 0 0 1.00001 9.0543e-06
282 16.6212 5.41942 0.277284 0 0 1.00001 6.31106e-06
361 15.6769 6.33819 0.03963 0 0 1.00001 8.21832e-06
286 17.8283 5.30167 0.541849 0 0 1.00001 6.07217e-06
288 17.1145 5.42528 1.24804 0 0 1.00001 7.15239e-06
365 17.0636 6.27452 0.411982 0 0 1.00001 8.17084e-06
367 17.6669 6.24708 1.38575 0 0 1.00001 9.20997e-06
372 18.2766 7.05262 1.13216 0 0 1.00001 1.06108e-05
369 18.373 6.23229 0.610327 0 0 1.00001 7.86588e-06
290 19.4304 5.75891 0.621003 0 0 1.00001 6.47359e-06
371 19.3299 6.55855 1.35109 0 0 1.00001 9.1173e-06
373 19.9959 6.75322 0.610763 0 0 1.00001 8.12151e-06
294 20.7507 5.77668 0.654101 0 0 1.00001 5.85887e-06
296 20.1945 5.61158 1.39586 0 0 1.00001 6.58533e-06
375 20.7804 6.61356 1.30389 0 0 1.00001 8.05603e-06
377 21.6607 6.66359 0.667006 0 0 1.00001 6.72432e-06
300 21.6645 5.87962 1.38547 0 0 1.00001 6.09516e-06
16260 21.6916 5.73334 0.0523303 0 0 1.00001 5.04577e-06
298 22.6744 5.82882 0.67441 0 0 1.00001 4.76524e-06
379 22.6334 6.69452 1.20763 0 0 1.00001 6.40771e-06
381 23.3497 6.78147 0.268315 0 0 1.00001 5.3099e-06
304 23.4834 5.88594 1.30029 0 0 1.00001 4.67374e-06
383 24.3209 6.56391 1.15858 0 0 1.00001 4.68211e-06
302 24.1468 6.00763 0.427934 0 0 1.00001 3.91696e-06
306 25.6841 5.86285 0.701159 0 0 1.00001 2.93533e-06
308 25.1135 6.04223 1.67744 0 0 1.00001 3.90459e-06
385 25.1604 6.74245 0.495464 0 0 1.00001 3.88356e-06
387 25.8262 6.59556 1.40793 0 0 1.00001 3.66064e-06
312 26.6912 5.84586 1.47642 0 0 1.00001 2.61392e-06
310 27.4975 5.54389 0.722333 0 0 1.00001 1.89083e-06
389 26.7495 6.36638 0.652081 0 0 1.00001 2.62059e-06
391 27.702 6.4738 1.36556 0 0 1.00001 2.31342e-06
316 28.3656 5.52256 1.48725 0 0 1.00001 1.67192e-06
390 27.7107 7.00808 0.53037 0 0 1.00001 2.34913e-06
314 29.3897 5.30927 0.818824 0 0 1.00001 1.16974e-06
395 29.4387 6.18264 1.32223 0 0 1.00001 1.39028e-06
394 29.5792 6.89829 0.506681 0 0 1.00001 1.39558e-06
393 28.4694 6.20643 0.638853 0 0 1.00001 1.69851e-06
16355 29.377 6.15433 0.0803235 0 0 1.00001 1.30793e-06
16276 28.483 5.3902 0.0594537 0 0 1.00001 1.4314e-06
318 30.9643 5.36862 0.595133 0 0 1.00001 7.56055e-07
320 30.2167 5.45983 1.46819 0 0 1.00001 1.01411e-06
397 30.3965 6.18294 0.649858 0 0 1.00001 9.9762e-07
399 31.2197 6.15544 1.38449 0 0 1.00001 7.9528e-07
398 31.2002 6.95438 0.603555 0 0 1.00001 8.21695e-07
321 31.7242 5.99648 0.44668 0 0 1.00001 6.21948e-07
401 0.26258 7.63227 0.661957 0 0 1.00001 2.79702e-07
402 0.831801 8.46366 0.619426 0 0 1.00001 4.77404e-07
403 1.11282 7.86407 1.49722 0 0 1.00001 6.3174e-07
404 0.357697 8.56283 1.47045 0 0 1.00001 3.17315e-07
405 1.59337 7.76489 0.371981 0 0 1.00001 7.42772e-07
408 1.72458 8.61742 1.46482 0 0 1.00001 9.92168e-07
326 2.48863 7.14987 0.476396 0 0 1.00001 1.03605e-06
406 2.19253 8.63349 0.399796 0 0 1.00001 1.11508e-06
407 2.39488 7.81098 1.27739 0 0 1.00001 1.19706e-06
412 3.01425 8.51436 0.935662 0 0 1.00001 1.63807e-06
409 3.24484 7.77106 0.327127 0 0 1.00001 1.51249e-06
410 3.81315 8.4588 0.0823343 0 0 1.00001 2.04668e-06
411 3.98044 7.66976 1.24869 0 0 1.00001 2.10012e-06
416 4.70532 8.25622 0.921952 0 0 1.00001 2.78636e-06
413 4.67094 7.63682 0.247841 0 0 1.00001 2.33204e-06
1250 3.81209 8.34829 1.76182 0 0 1.00001 2.45133e-06
414 5.87033 8.3477 0.170024 0 0 1.00001 3.69419e-06
415 5.4844 7.59021 1.03239 0 0 1.00001 3.10286e-06
417 6.49435 7.53752 0.169272 0 0 1.00001 3.67861e-06
420 6.39764 8.23891 1.04401 0 0 1.00001 4.48345e-06
419 7.28673 7.76842 0.746489 0 0 1.00001 4.81828e-06
424 8.28694 8.31277 0.868992 0 0 1.00001 6.71969e-06
1258 7.27973 8.18249 1.70166 0 0 1.00001 6.17578e-06
1261 8.05327 7.48685 1.56059 0 0 1.00001 6.09403e-06
421 7.99982 7.6024 0.0283348 0 0 1.00001 5.1604e-06
348 9.84419 7.22106 0.723738 0 0 1.00001 6.82606e-06
423 8.91315 7.61535 0.661959 0 0 1.00001 6.37262e-06
428 9.73374 8.61841 0.69344 0 0 1.00001 9.0508e-06
1262 9.09413 8.69757 1.4452 0 0 1.00001 9.33006e-06
1265 9.64207 7.88795 1.60076 0 0 1.00001 8.98278e-06
352 11.3174 7.14198 0.810928 0 0 1.00001 8.26075e-06
427 10.5746 7.94422 0.844576 0 0 1.00001 9.08289e-06
1266 10.5896 8.70061 1.42587 0 0 1.00001 1.18335e-05
1269 11.4078 7.80392 1.60329 0 0 1.00001 1.13174e-05
429 11.2285 8.11749 0.0426531 0 0 1.00001 9.62349e-06
356 12.7079 7.28263 0.566262 0 0 1.00001 9.51955e-06
431 12.1799 8.2341 0.591232 0 0 1.00001 1.1307e-05
1190 12.0659 7.15698 1.3781 0 0 1.00001 9.94586e-06
1270 12.0912 8.67927 1.49088 0 0 1.00001 1.43716e-05
1273 12.8626 7.99497 1.47641 0 0 1.00001 1.32681e-05
360 14.3391 7.35383 0.581795 0 0 1.00001 1.07223e-05
435 13.619 8.09227 0.465188 0 0 1.00001 1.21206e-05
1194 13.4605 7.33954 1.34191 0 0 1.00001 1.15754e-05
1277 14.2501 8.18294 1.353 0 0 1.00001 1.47298e-05
362 16.4349 7.18519 0.277512 0 0 1.00001 1.0391e-05
364 15.63 7.31137 0.923436 0 0 1.00001 1.14898e-05
439 15.0717 8.29234 0.866128 0 0 1.00001 1.4153e-05
443 16.2629 8.16087 1.11225 0 0 1.00001 1.45015e-05
1198 15.148 7.52255 1.6256 0 0 1.00001 1.3877e-05
441 15.8691 8.31534 0.153316 0 0 1.00001 1.34168e-05
368 16.9795 7.36306 1.11731 0 0 1.00001 1.19795e-05
445 17.0705 8.1055 0.34267 0 0 1.00001 1.28271e-05
447 17.7059 8.02483 1.02766 0 0 1.00001 1.3443e-05
366 17.818 7.16663 0.213721 0 0 1.00001 1.00003e-05
370 19.0065 7.33921 0.644955 0 0 1.00001 1.01579e-05
451 18.9302 8.15464 1.18668 0 0 1.00001 1.33879e-05
376 19.8734 7.65887 1.32763 0 0 1.00001 1.14192e-05
453 19.8055 8.14321 0.36128 0 0 1.00001 1.11943e-05
449 18.4509 8.19097 0.169535 0 0 1.00001 1.22944e-05
374 20.7007 7.46191 0.673854 0 0 1.00001 9.07827e-06
455 20.6487 8.44217 1.03712 0 0 1.00001 1.19034e-05
380 21.5431 7.67451 1.15083 0 0 1.00001 9.24934e-06
457 21.6134 8.34617 0.259234 0 0 1.00001 9.57569e-06
459 22.5882 8.18006 1.02135 0 0 1.00001 8.72234e-06
1218 22.419 7.50302 1.7602 0 0 1.00001 8.89096e-06
378 22.338 7.48591 0.386885 0 0 1.00001 7.28685e-06
384 23.4461 7.32332 1.05203 0 0 1.00001 6.37053e-06
461 23.4895 8.07697 0.38723 0 0 1.00001 6.90728e-06
463 24.3449 8.10316 1.00314 0 0 1.00001 6.3269e-06
1302 24.2536 8.72006 1.68891 0 0 1.00001 8.15188e-06
382 24.3405 7.32655 0.269736 0 0 1.00001 5.0718e-06
388 25.1174 7.39603 1.25587 0 0 1.00001 4.88838e-06
467 26.0211 8.00691 0.989198 0 0 1.00001 4.36839e-06
1306 26.0193 8.62991 1.75829 0 0 1.00001 5.5074e-06
386 26.0929 7.27959 0.368473 0 0 1.00001 3.55904e-06
465 25.23 8.13352 0.308231 0 0 1.00001 5.0079e-06
466 26.274 8.58663 0.089538 0 0 1.00001 4.28154e-06
392 26.7839 7.11268 1.34413 0 0 1.00001 3.25229e-06
470 27.9651 8.50555 0.42983 0 0 1.00001 2.78759e-06
471 27.7968 7.83914 1.21535 0 0 1.00001 2.82367e-06
472 26.9772 8.6561 1.02616 0 0 1.00001 3.88869e-06
469 26.997 7.78423 0.434916 0 0 1.00001 3.19074e-06
396 28.6523 7.11387 1.23071 0 0 1.00001 1.9875e-06
474 29.5951 8.35402 0.544678 0 0 1.00001 1.68267e-06
475 29.4985 7.67865 1.27685 0 0 1.00001 1.69632e-06
476 28.7806 8.55957 1.18652 0 0 1.00001 2.36225e-06
473 28.696 7.71945 0.41624 0 0 1.00001 2.02089e-06
400 30.3257 7.09224 1.17987 0 0 1.00001 1.18312e-06
479 31.2511 7.82471 1.3019 0 0 1.00001 8.96914e-07
480 30.4306 8.4924 1.18437 0 0 1.00001 1.32302e-06
477 30.6375 7.87349 0.380093 0 0 1.00001 1.09692e-06
478 31.4256 8.62355 0.390702 0 0 1.00001 8.17377e-07
482 1.12069 10.2844 0.274366 0 0 1.00001 6.56743e-07
483 1.01377 9.37764 1.20657 0 0 1.00001 6.20468e-07
484 0.253393 9.92962 0.89865 0 0 1.00001 2.03635e-07
481 0.368309 9.33547 0.122695 0 0 1.00001 2.68324e-07
1322 0.809988 10.127 1.75276 0 0 1.00001 5.88276e-07
485 1.75677 9.44546 0.452318 0 0 1.00001 9.75506e-07
488 1.82497 10.3746 0.969969 0 0 1.00001 1.17409e-06
486 2.59157 10.276 0.085483 0 0 1.00001 1.63281e-06
487 2.37434 9.446 1.22288 0 0 1.00001 1.47766e-06
1326 2.76997 10.2341 1.66392 0 0 1.00001 2.12175e-06
1329 3.19817 9.23669 1.65214 0 0 1.00001 2.21094e-06
489 3.07227 9.37052 0.0799621 0 0 1.00001 1.78976e-06
492 3.37719 10.0334 0.729794 0 0 1.00001 2.28718e-06
491 3.9316 9.10849 0.853616 0 0 1.00001 2.48657e-06
493 4.57641 9.17953 0.00740561 0 0 1.00001 2.94193e-06
496 4.60641 9.97592 0.570499 0 0 1.00001 3.42372e-06
1330 4.11983 9.97076 1.61728 0 0 1.00001 3.4174e-06
1333 4.67289 9.06642 1.64822 0 0 1.00001 3.59845e-06
495 5.32965 8.94299 0.658951 0 0 1.00001 3.65498e-06
500 6.23979 9.79162 0.51185 0 0 1.00001 5.29249e-06
1334 5.31049 9.83023 1.15792 0 0 1.00001 4.47265e-06
1337 6.15253 9.04956 1.2548 0 0 1.00001 5.03265e-06
1417 6.23532 10.5082 1.1812 0 0 1.00001 6.38846e-06
499 7.16663 8.87908 0.70867 0 0 1.00001 5.78767e-06
501 8.0964 9.04526 0.0804355 0 0 1.00001 7.00309e-06
504 7.95985 9.92231 0.574411 0 0 1.00001 8.10318e-06
1338 7.1798 9.73493 1.18783 0 0 1.00001 7.19305e-06
1341 8.04646 9.16447 1.39521 0 0 1.00001 8.21078e-06
503 8.94105 9.45179 0.724781 0 0 1.00001 9.24089e-06
508 9.6468 10.3345 0.655685 0 0 1.00001 1.19746e-05
1342 8.75145 10.2644 1.40059 0 0 1.00001 1.13903e-05
1345 9.83296 9.58711 1.40633 0 0 1.00001 1.23831e-05
432 11.3768 8.84559 0.730329 0 0 1.00001 1.1944e-05
426 10.4046 8.88418 0.0402397 0 0 1.00001 1.00961e-05
507 10.4659 9.67944 0.652814 0 0 1.00001 1.22164e-05
1346 10.635 10.1648 1.62675 0 0 1.00001 1.62658e-05
1349 11.3041 9.63207 1.31061 0 0 1.00001 1.51156e-05
436 13.0099 8.96446 0.785197 0 0 1.00001 1.4452e-05
511 12.1118 9.81234 0.683393 0 0 1.00001 1.53495e-05
516 12.824 10.4715 0.956695 0 0 1.00001 1.89667e-05
1353 12.5478 9.61182 1.60551 0 0 1.00001 1.84457e-05
1274 13.6942 8.84025 1.56435 0 0 1.00001 1.72057e-05
440 14.4728 9.1974 0.758314 0 0 1.00001 1.6381e-05
515 13.5345 9.67698 0.832741 0 0 1.00001 1.72073e-05
1354 13.5017 10.4064 1.70272 0 0 1.00001 2.3353e-05
517 14.2784 10.1509 0.213542 0 0 1.00001 1.81516e-05
444 15.9069 9.16042 1.13667 0 0 1.00001 1.79493e-05
1278 15.0581 9.06691 1.75928 0 0 1.00001 2.01307e-05
519 15.1384 9.85687 1.00895 0 0 1.00001 1.96124e-05
521 15.6978 10.1816 0.252372 0 0 1.00001 1.90202e-05
523 16.5139 9.96029 0.961841 0 0 1.00001 1.9979e-05
442 16.5168 9.03252 0.259896 0 0 1.00001 1.55504e-05
438 15.3067 9.20701 0.0909504 0 0 1.00001 1.58442e-05
452 18.3053 8.90116 0.94625 0 0 1.00001 1.5564e-05
448 17.1007 9.07314 1.13024 0 0 1.00001 1.74227e-05
525 17.1615 10.0298 0.20857 0 0 1.00001 1.83684e-05
527 17.7827 9.8758 1.07629 0 0 1.00001 1.95087e-05
446 17.7708 9.11264 0.116842 0 0 1.00001 1.52695e-05
456 19.8266 8.96751 1.0716 0 0 1.00001 1.44725e-05
529 18.6059 9.73896 0.301384 0 0 1.00001 1.65779e-05
531 19.5146 9.90501 0.855494 0 0 1.00001 1.70104e-05
532 18.7315 10.462 1.15168 0 0 1.00001 2.07645e-05
1369 18.6651 9.59379 1.7193 0 0 1.00001 2.04957e-05
450 19.2507 8.96841 0.212667 0 0 1.00001 1.37478e-05
533 19.9957 9.79463 0.0744764 0 0 1.00001 1.49241e-05
535 20.9373 9.81928 0.75788 0 0 1.00001 1.43159e-05
1373 20.2576 9.67446 1.68603 0 0 1.00001 1.79486e-05
454 20.7984 9.0912 0.210247 0 0 1.00001 1.21884e-05
460 21.6373 9.04773 0.988293 0 0 1.00001 1.18275e-05
1298 22.3999 8.90166 1.59973 0 0 1.00001 1.15175e-05
539 22.8373 9.69982 0.81298 0 0 1.00001 1.07861e-05
540 22.1047 10.5387 0.885999 0 0 1 1.39001e-05
1377 21.9233 9.8021 1.56001 0 0 1.00001 1.43791e-05
1378 23.039 10.5272 1.46879 0 0 1.00001 1.31383e-05