ITEM: TIMESTEP
1500
ITEM: NUMBER OF ATOMS
32000
ITEM: BOX BOUNDS pp pp pp
0.0000000000000000e+00 3.1748021039364001e+01
0.0000000000000000e+00 3.1748021039364001e+01
0.0000000000000000e+00 3.1748021039364001e+01
ITEM: ATOMS id x y z c_phase c_nbond c_rho v_omega
4 0.117863 1.10255 0.464485 0 0 1.00001 7.2468e-07
83 0.975613 1.66833 0.778101 0 0 1.00001 1.04198e-06
842 0.716106 0.793387 1.41294 0 0 1.00001 8.24569e-07
921 0.00500676 1.60279 1.37449 0 0 1.00001 7.64268e-07
3 0.731221 0.0631973 0.616127 0 0 1.00001 6.99359e-07
8 1.71152 0.808705 1.01552 0 0 1.00001 1.05428e-06
85 1.80209 1.47441 0.221099 0 0 1.00001 1.23164e-06
925 1.82183 1.66012 1.76125 0 0 1.00001 1.33957e-06
6 2.52216 0.748493 0.203864 0 0 1.00001 1.21143e-06
7 2.59257 0.0532484 1.0373 0 0 1.00001 1.03796e-06
87 2.6506 1.54045 0.882868 0 0 1.00001 1.49376e-06
846 2.66968 0.814935 1.74568 0 0 1.00001 1.31364e-06
12 3.435 0.932874 0.956474 0 0 1.00001 1.47545e-06
849 3.50019 0.0916419 1.7058 0 0 1.00001 1.21048e-06
929 3.60794 1.70711 1.72 0 0 1.00001 1.92728e-06
10 4.10692 0.857401 0.325289 0 0 1.00001 1.5585e-06
16 4.96261 0.566691 1.17458 0 0 1.00001 1.57631e-06
93 4.92071 1.59879 0.383579 0 0 1.00001 2.12442e-06
850 4.34818 0.940549 1.62901 0 0 1.00001 1.72036e-06
9 3.47708 0.110511 0.171085 0 0 1.00001 1.17429e-06
14 5.64821 0.644351 0.325782 0 0 1.00001 1.65539e-06
95 5.8852 1.30926 0.938207 0 0 1.00001 2.18519e-06
97 6.57581 1.38973 0.218401 0 0 1.00001 2.33347e-06
854 5.78454 0.459277 1.69908 0 0 1.00001 1.63798e-06
933 5.03246 1.7229 1.43612 0 0 1.00001 2.34344e-06
20 6.71432 0.388965 0.865389 0 0 1.00001 1.53834e-06
937 6.69196 1.00818 1.69389 0 0 1.00001 2.16773e-06
24 8.26806 0.407313 1.07334 0 0 1.00001 1.49866e-06
99 7.3687 1.2214 0.954233 0 0 1.00001 2.33866e-06
101 8.24794 1.38935 0.236801 0 0 1.00001 2.56804e-06
941 8.12964 1.27055 1.60673 0 0 1.00001 2.60439e-06
18 7.58297 0.646416 0.140389 0 0 1.00001 1.74564e-06
22 8.85863 0.506909 0.273839 0 0 1.00001 1.52317e-06
28 9.55298 0.336945 0.888721 0 0 1.00001 1.23992e-06
103 9.02661 1.30559 1.11325 0 0 1.00001 2.60245e-06
945 9.57495 0.971551 1.76348 0 0 1.00001 2.27955e-06
105 9.64067 1.37305 0.0901719 0 0 1.00001 2.63639e-06
32 11.2122 0.214412 0.632716 0 0 1.00001 7.12957e-07
107 10.3641 1.04594 0.823216 0 0 1.00001 2.1726e-06
866 10.5226 0.194762 1.44545 0 0 1.00001 8.73969e-07
949 11.2862 1.01696 1.41796 0 0 1.00001 2.17127e-06
946 10.581 1.6755 1.73002 0 0 1.00001 3.53872e-06
26 10.243 0.36623 0.0779905 0 0 1.00001 1.1317e-06
36 12.8751 0.210591 0.6368 0 0 1.00001 3.62224e-07
111 12.046 1.07277 0.5068 0 0 1.00001 2.06699e-06
870 12.1313 0.315138 1.29962 0 0 1.00001 7.20266e-07
953 12.7201 1.19743 1.37244 0 0 1.00001 2.42898e-06
40 14.3722 0.317864 0.764773 0 0 1.00001 3.5861e-07
115 13.5928 1.11202 0.843718 0 0 1.00001 2.07313e-06
117 14.0409 1.55866 0.1675 0 0 1.00001 2.97365e-06
874 13.6071 0.358963 1.63517 0 0 1.00001 5.98567e-07
957 14.3783 1.14891 1.47659 0 0 1.00001 2.253e-06
119 14.8773 1.55284 0.663133 0 0 1.00001 2.9931e-06
44 15.7061 0.770305 0.788292 0 0 1.00001 1.25444e-06
123 16.5542 1.54453 0.681552 0 0 1.00001 3.01234e-06
878 15.1419 0.46386 1.6414 0 0 1.00001 7.08994e-07
882 16.547 0.712384 1.34208 0 0 1.00002 1.25048e-06
961 15.6352 1.48537 1.39174 0 0 1.00001 3.07449e-06
38 15.1047 0.711168 0.067856 0 0 1.00001 1.05242e-06
48 17.2545 0.732432 0.547731 0 0 1.00002 1.23301e-06
127 17.9243 1.58166 0.757391 0 0 1.00002 3.18601e-06
886 17.9162 0.743579 1.42789 0 0 1.00002 1.48534e-06
965 17.2219 1.74933 1.56285 0 0 1.00002 3.88792e-06
51 19.5366 0.0175009 0.662743 0 0 1.00002 3.045e-07
52 18.792 0.725772 0.68491 0 0 1.00001 1.42802e-06
131 19.5408 1.55588 0.841811 0 0 1.00001 3.22701e-06
889 19.0271 0.159486 1.54486 0 0 1.00001 5.09382e-07
890 19.5941 0.968691 1.68948 0 0 1.00001 2.28513e-06
969 18.6579 1.51391 1.50035 0 0 1.00002 3.33273e-06
55 21.0892 0.351032 1.0674 0 0 1.00001 1.2611e-06
56 20.2497 0.777468 0.979984 0 0 1.00002 1.80446e-06
135 21.1076 1.65844 0.951758 0 0 1.00002 3.45649e-06
54 21.1879 0.76665 0.218971 0 0 1.00002 1.8334e-06
133 20.3469 1.51579 0.194019 0 0 1.00002 3.05763e-06
57 22.009 0.263738 0.539786 0 0 1.00001 1.26419e-06
59 22.792 0.431675 1.4071 0 0 1.00001 1.72861e-06
60 22.1117 1.14917 1.32976 0 0 1.00001 2.68896e-06
137 21.9996 1.60095 0.538659 0 0 1.00001 3.21154e-06
58 22.9168 1.07571 0.445484 0 0 1.00001 2.39689e-06
63 24.229 0.381566 1.45165 0 0 1.00001 1.76378e-06
61 23.5678 0.358707 0.573771 0 0 1.00001 1.57455e-06
62 24.438 1.18807 0.754794 0 0 1.00001 2.46439e-06
64 23.4771 1.25134 1.40266 0 0 1.00001 2.78753e-06
65 24.9559 0.316808 0.552006 0 0 1.00001 1.58532e-06
67 26.0095 0.384434 1.17141 0 0 1.00001 1.65294e-06
68 25.1704 1.12719 1.48064 0 0 1.00001 2.44205e-06
147 25.9319 1.7362 1.35788 0 0 1.00001 2.79133e-06
66 25.893 0.930368 0.432191 0 0 1.00001 1.99671e-06
70 27.5752 1.28123 0.389188 0 0 1.00001 1.86687e-06
71 27.6155 0.510067 0.874329 0 0 1.00001 1.47602e-06
72 26.7573 1.0292 1.26337 0 0 1.00001 1.99749e-06
913 28.3763 0.338281 1.39818 0 0 1.00001 1.30765e-06
69 26.7936 0.241207 0.226785 0 0 1.00001 1.41097e-06
76 28.6505 1.24324 0.74234 0 0 1.00001 1.57326e-06
914 29.3926 0.94639 1.56874 0 0 1.00001 1.32306e-06
993 28.5245 1.72018 1.49756 0 0 1.00001 1.93083e-06
917 29.8147 0.174295 1.46115 0 0 1.00001 9.38319e-07
75 29.2748 0.35518 0.615336 0 0 1.00001 1.06726e-06
841 31.5888 0.266157 1.25665 0 0 1.00001 5.15201e-07
79 30.7031 0.490233 0.470888 0 0 1.00001 7.69759e-07
80 30.1024 1.19918 0.774201 0 0 1.00001 1.14178e-06
918 30.8664 0.972192 1.39386 0 0 1.00001 8.91572e-07
82 1.11244 2.43595 0.129337 0 0 1.00001 1.23554e-06
84 0.1351 2.38225 0.812313 0 0 1.00001 9.00617e-07
163 1.29016 3.23745 0.949256 0 0 1.00001 1.48235e-06
922 1.14143 2.36069 1.59167 0 0 1.00001 1.26717e-06
1001 0.388456 3.03022 1.54952 0 0 1.00001 1.09362e-06
161 0.334009 3.09602 0.13145 0 0 1.00001 1.06502e-06
88 1.91135 2.41832 0.783867 0 0 1.00001 1.51671e-06
167 2.66021 3.27975 0.860948 0 0 1.00001 2.1276e-06
926 2.67093 2.2287 1.53389 0 0 1.00001 1.79752e-06
1009 3.2598 3.42579 1.64953 0 0 1.00001 2.63685e-06
86 2.72762 2.38116 0.0557884 0 0 1.00001 1.79755e-06
92 3.38353 2.55345 0.779422 0 0 1.00001 2.14149e-06
91 4.00819 1.84011 0.711279 0 0 1.00001 2.01865e-06
96 4.91534 2.57162 0.815787 0 0 1.00001 2.8048e-06
171 4.20325 3.3165 0.74957 0 0 1.00001 2.94879e-06
930 4.13423 2.64009 1.58336 0 0 1.00001 2.62895e-06
94 5.65199 2.44149 0.132848 0 0 1.00001 2.97067e-06
100 6.55923 2.17924 0.772771 0 0 1.00001 3.10511e-06
175 5.65066 3.19455 0.952669 0 0 1.00001 3.71162e-06
934 5.86254 2.19299 1.49683 0 0 1.00001 3.01049e-06
1017 6.52257 3.06523 1.55578 0 0 1.00001 4.26162e-06
177 6.65205 2.92636 0.134252 0 0 1.00001 3.86674e-06
98 7.45547 2.22432 0.139874 0 0 1.00001 3.39712e-06
104 8.08369 2.20042 0.930558 0 0 1.00001 3.64643e-06
179 7.40336 3.06652 0.934081 0 0 1.00001 4.52932e-06
938 7.30082 2.05877 1.56873 0 0 1.00001 3.39414e-06
1021 8.18784 2.9998 1.65226 0 0 1.00001 5.15479e-06
181 8.27137 2.96937 0.039325 0 0 1.00001 4.69719e-06
102 8.90539 2.08542 0.252448 0 0 1.00001 3.59635e-06
108 9.77399 2.02287 1.10998 0 0 1.00001 3.82652e-06
183 8.92887 2.97069 0.928893 0 0 1.00001 5.14359e-06
942 9.03241 2.21885 1.70423 0 0 1.00001 4.22693e-06
185 9.56315 2.90392 0.213157 0 0 1.00001 5.13569e-06
106 10.2848 2.11201 0.214304 0 0 1.00001 3.91082e-06
112 11.1596 1.82462 0.771258 0 0 1.00001 3.5652e-06
187 10.6238 2.80633 0.921713 0 0 1.00001 5.50565e-06
1029 11.4472 2.828 1.57529 0 0 1.00001 6.19061e-06
116 12.6752 1.93995 0.594091 0 0 1.00001 3.87192e-06
191 11.9303 2.63959 0.742456 0 0 1.00001 5.41044e-06
950 11.9256 1.91914 1.46534 0 0 1.00001 4.04139e-06
1033 12.8485 3.01627 1.68653 0 0 1.00001 7.23076e-06
195 13.1826 3.02888 0.848918 0 0 1.00001 6.71173e-06
954 13.3803 1.99022 1.48083 0 0 1.00001 4.34669e-06
120 14.023 2.44358 0.927258 0 0 1.00001 5.2901e-06
1037 14.0322 3.38273 1.55744 0 0 1.00001 8.513e-06
199 14.7002 3.43629 0.885107 0 0 1.00001 8.203e-06
958 14.7851 2.29721 1.44821 0 0 1.00001 5.24974e-06
118 14.8441 2.51429 0.136936 0 0 1.00001 5.32257e-06
197 14.1622 3.22503 0.033166 0 0 1.00001 7.1697e-06
114 13.4156 2.29294 0.0592822 0 0 1.00001 4.65339e-06
124 15.7017 2.4434 0.693114 0 0 1.00001 5.27981e-06
203 16.3066 3.20101 0.662815 0 0 1.00001 7.42111e-06
962 16.3109 2.47967 1.52595 0 0 1.00001 5.88562e-06
1041 15.3739 3.25698 1.50228 0 0 1.00001 8.22953e-06
201 15.574 3.25816 0.0199166 0 0 1.00001 7.41335e-06
128 17.067 2.35076 0.683096 0 0 1.00001 5.049e-06
207 17.9472 2.92698 0.700045 0 0 1.00002 6.54859e-06
966 18.0221 2.44008 1.58142 0 0 1.00002 5.75884e-06
1045 17.0957 3.1168 1.4953 0 0 1.00001 7.75717e-06
132 18.8932 2.35858 1.01381 0 0 1.00002 5.14985e-06
211 19.7062 3.2443 1.27811 0 0 1.00002 7.4941e-06
209 18.887 2.9972 0.196449 0 0 1.00002 6.46877e-06
130 19.5893 2.34327 0.101979 0 0 1.00001 4.79322e-06
973 20.3269 1.79006 1.72448 0 0 1.00001 4.09545e-06
134 21.1589 2.41816 0.458664 0 0 1.00001 4.79151e-06
136 20.1974 2.47018 1.11446 0 0 1.00002 5.29911e-06
215 21.3135 3.29702 1.3932 0 0 1.00001 7.07747e-06
213 20.425 2.99484 0.335324 0 0 1.00001 6.15786e-06
139 22.8741 2.0717 1.50886 0 0 1.00001 4.15433e-06
138 22.974 2.60381 0.735759 0 0 1.00002 4.69071e-06
140 22.0983 2.50098 1.23804 0 0 1.00001 4.97786e-06
217 21.9926 3.20243 0.599347 0 0 1.00002 6.12083e-06
16179 22.6804 3.40317 0.0762968 0 0 1.00002 6.06993e-06
141 23.7455 1.80993 0.624207 0 0 1.00001 3.281e-06
143 24.4308 1.98933 1.61079 0 0 1.00001 3.62319e-06
142 24.3443 2.68469 0.775432 0 0 1.00001 4.26718e-06
144 23.6913 2.90502 1.53637 0 0 1.00001 5.21087e-06
223 24.4758 3.5132 1.55719 0 0 1.00001 5.71008e-06
16108 24.9584 2.84709 0.0151603 0 0 1.00001 4.08128e-06
149 26.55 1.79529 0.511557 0 0 1.00001 2.50498e-06
145 25.134 1.85746 0.509724 0 0 1.00001 2.98016e-06
146 25.7939 2.61351 0.707669 0 0 1.00001 3.53143e-06
148 25.1603 2.55742 1.52542 0 0 1.00001 3.99354e-06
227 25.724 3.50019 1.51233 0 0 1.00001 4.79413e-06
152 26.5385 2.56166 1.53049 0 0 1.00001 3.33818e-06
229 26.1711 3.50247 0.599284 0 0 1.00001 4.20289e-06
151 27.5056 1.9866 1.2379 0 0 1.00001 2.40608e-06
153 28.2507 2.09113 0.343953 0 0 1.00001 2.08865e-06
150 27.0887 2.6937 0.645484 0 0 1.00001 2.98718e-06
231 27.2022 3.35561 1.41689 0 0 1.00001 3.62272e-06
156 28.2556 2.75911 1.20641 0 0 1.00001 2.56184e-06
233 27.9841 3.2212 0.326797 0 0 1.00001 2.87702e-06
997 29.9586 1.80965 1.70762 0 0 1.00001 1.47764e-06
155 29.4494 2.04755 0.879861 0 0 1.00001 1.66095e-06
154 29.1974 2.65987 0.290862 0 0 1.00001 1.98398e-06
235 29.2515 3.26601 1.1739 0 0 1.00001 2.32345e-06
159 30.913 1.9853 0.924294 0 0 1.00001 1.12357e-06
160 30.1834 2.71156 1.00198 0 0 1.00001 1.62729e-06
239 31.0266 3.35341 0.971223 0 0 1.00001 1.4517e-06
998 30.9883 2.69528 1.72654 0 0 1.00001 1.35841e-06
237 30.1113 3.26001 0.132633 0 0 1.00001 1.80671e-06
157 30.4132 1.90945 0.0257901 0 0 1.00001 1.24222e-06
158 31.1451 2.66429 0.0763039 0 0 1.00001 1.19005e-06
164 0.295738 3.78519 0.91872 0 0 1.00001 1.12995e-06
241 0.145021 4.59485 0.48222 0 0 1.00001 1.12138e-06
243 1.14225 4.67082 0.986796 0 0 1.00001 1.70991e-06
244 0.0906278 5.26723 1.27775 0 0 1.00001 1.14588e-06
162 1.04258 3.86408 0.0598363 0 0 1.00001 1.48313e-06
168 1.84314 4.04569 0.847245 0 0 1.00001 1.9552e-06
247 2.54251 4.85523 1.13749 0 0 1.00001 2.73646e-06
166 2.65142 4.14416 0.206811 0 0 1.00001 2.44045e-06
245 1.89958 4.9685 0.278565 0 0 1.00001 2.23914e-06
249 3.40983 4.86092 0.161757 0 0 1.00001 3.31538e-06
172 3.49588 4.07586 0.886026 0 0 1.00001 2.99267e-06
176 4.9145 3.99872 1.18342 0 0 1.00001 4.00929e-06
251 4.04896 4.87876 1.14658 0 0 1.00001 4.00075e-06
170 4.26221 4.1839 0.149027 0 0 1.00001 3.5279e-06
253 5.01176 4.73855 0.341075 0 0 1.00001 4.57917e-06
174 5.77929 3.93629 0.198666 0 0 1.00001 4.41819e-06
180 6.49129 3.76446 0.772341 0 0 1.00001 4.80389e-06
255 5.683 4.73443 1.02514 0 0 1.00001 5.34514e-06
1097 6.66621 4.50935 1.64313 0 0 1.00001 6.33908e-06
260 6.68358 5.12931 0.885346 0 0 1.00001 6.82456e-06
184 8.20098 3.88978 0.70103 0 0 1.00001 6.214e-06
259 7.41121 4.45857 0.547041 0 0 1.00001 6.44144e-06
1018 7.40167 3.86817 1.49714 0 0 1.00001 5.93361e-06
1101 8.20371 4.6084 1.48699 0 0 1.00001 7.98507e-06
188 9.90053 3.57591 0.885945 0 0 1.00001 6.79326e-06
263 9.08261 4.56305 0.821586 0 0 1.00001 8.26613e-06
265 9.86618 4.50081 0.126614 0 0 1.00001 8.5795e-06
1022 9.0813 3.76036 1.49852 0 0 1.00001 7.04524e-06
1105 9.87317 4.34368 1.65574 0 0 1.00001 9.17325e-06
182 8.98822 3.86602 0.0632625 0 0 1.00001 6.60519e-06
192 11.4114 3.64298 0.778915 0 0 1.00001 7.69845e-06
267 10.5934 4.66377 0.906601 0 0 1.00001 9.91591e-06
269 11.3911 4.6917 0.230865 0 0 1.00001 1.02603e-05
1026 10.7095 3.56493 1.58827 0 0 1.00001 7.72399e-06
1109 11.3701 4.36956 1.70574 0 0 1.00001 1.05622e-05
272 11.3949 5.26965 0.984563 0 0 1.00001 1.2442e-05
186 10.586 3.84668 0.176296 0 0 1.00001 7.59908e-06
196 12.52 3.57599 0.815054 0 0 1.00001 7.97592e-06
271 12.1964 4.54831 1.00059 0 0 1.00001 1.08624e-05
1113 12.7436 4.99482 1.68949 0 0 1.00001 1.37342e-05
275 13.2311 4.67747 0.800649 0 0 1.00001 1.1638e-05
273 12.6479 4.6169 0.0635275 0 0 1.00001 1.08208e-05
200 13.994 4.12701 0.696975 0 0 1.00001 1.00878e-05
1034 13.4889 4.21649 1.59362 0 0 1.00001 1.11882e-05
1117 14.2115 5.11689 1.52073 0 0 1.00001 1.47117e-05
279 14.9467 5.01085 0.812294 0 0 1.00001 1.35105e-05
1038 14.9708 4.41591 1.59478 0 0 1.00001 1.23999e-05
277 14.1461 4.90486 0.0608101 0 0 1.00001 1.24543e-05
198 14.9657 4.19336 0.0973258 0 0 1.00001 1.02626e-05
204 15.6734 4.06624 0.926633 0 0 1.00001 1.03602e-05
281 15.8852 4.77565 0.187152 0 0 1.00001 1.23355e-05
283 16.5994 4.58094 0.900828 0 0 1.00001 1.20753e-05
1042 16.3242 3.95921 1.6906 0 0 1.00001 1.09453e-05
1121 15.8188 5.05288 1.64149 0 0 1.00001 1.51344e-05
208 17.2736 3.83439 0.811723 0 0 1.00001 9.40991e-06
287 18.0919 4.48996 1.09857 0 0 1.00001 1.16671e-05
1046 17.9574 3.63931 1.65632 0 0 1.00001 9.5144e-06
285 17.4619 4.5781 0.0157121 0 0 1.00001 1.14402e-05
206 18.1391 3.85556 0.0592385 0 0 1.00002 8.99636e-06
212 18.8819 3.70824 0.950828 0 0 1.00002 8.75914e-06
289 18.8287 4.61123 0.362524 0 0 1.00001 1.1176e-05
291 19.6957 4.68088 1.08151 0 0 1.00001 1.15028e-05
292 18.7924 5.27926 1.20159 0 0 1.00001 1.4264e-05
210 19.6026 3.76876 0.228256 0 0 1.00002 8.32746e-06
216 20.4426 3.82414 1.23375 0 0 1.00001 8.68466e-06
295 20.8898 4.72163 1.39446 0 0 1.00001 1.11076e-05
297 21.5827 4.95436 0.810821 0 0 1.00002 1.05648e-05
214 21.0865 3.93363 0.512988 0 0 1.00001 8.16905e-06
293 20.1393 4.78795 0.353261 0 0 1.00001 1.09762e-05
219 22.824 3.63422 1.42144 0 0 1.00002 6.98371e-06
220 21.9447 4.13591 1.31103 0 0 1.00001 8.60325e-06
299 22.4756 5.18053 1.27353 0 0 1.00001 1.06571e-05
218 22.616 4.3496 0.510928 0 0 1.00002 8.07204e-06
221 23.5766 3.64115 0.782962 0 0 1.00002 6.13583e-06
222 24.3393 4.32316 0.625502 0 0 1.00002 6.63497e-06
224 23.4718 4.55234 1.33395 0 0 1.00002 8.24113e-06
305 24.8556 5.25991 0.567257 0 0 1.00001 7.61433e-06
301 23.5558 5.06702 0.53415 0 0 1.00001 8.68281e-06
228 25.0122 4.50317 1.62344 0 0 1.00001 6.85982e-06
225 25.0657 3.68218 0.802294 0 0 1.00001 5.19053e-06
303 24.3671 5.29197 1.43414 0 0 1.00001 8.80305e-06
307 25.6941 5.14184 1.34306 0 0 1.00001 6.9063e-06
232 26.3604 4.29252 1.37184 0 0 1.00001 5.15187e-06
309 26.5057 4.97492 0.641173 0 0 1.00001 5.52821e-06
226 25.5315 4.40318 0.388839 0 0 1.00001 5.67586e-06
311 27.3331 4.87181 1.40587 0 0 1.00001 4.89219e-06
236 27.9648 3.97789 1.10432 0 0 1.00001 3.52372e-06
313 28.2796 4.73646 0.706597 0 0 1.00001 3.73487e-06
230 27.0699 4.04487 0.570519 0 0 1.00001 4.10372e-06
234 28.9342 3.77136 0.487333 0 0 1.00001 2.67093e-06
315 29.0896 4.52452 1.33095 0 0 1.00001 3.10876e-06
240 29.9999 4.07279 1.02332 0 0 1.00001 2.22565e-06
238 31.0316 3.97448 0.373415 0 0 1.00001 1.57745e-06
317 30.2068 4.67876 0.491356 0 0 1.00001 2.26958e-06
319 30.9804 4.60008 1.41127 0 0 1.00001 1.85046e-06
242 0.910419 5.53203 0.461825 0 0 1.00001 1.67415e-06
248 1.53381 5.51156 1.37983 0 0 1.00001 2.20856e-06
323 0.796005 6.22016 1.27697 0 0 1.00001 1.72161e-06
324 0.259275 6.91788 1.5075 0 0 1.00001 1.30521e-06
322 0.972269 6.94532 0.573546 0 0 1.00001 1.89623e-06
328 1.7077 7.02831 1.23836 0 0 1.00001 2.73416e-06
325 1.89801 6.19921 0.519077 0 0 1.00001 2.60907e-06
252 3.10725 5.6162 1.30066 0 0 1.00001 3.6386e-06
327 2.26606 6.15284 1.40998 0 0 1.00001 3.08749e-06
332 3.257 6.96092 1.12783 0 0 1.00001 4.53818e-06
246 2.68399 5.61202 0.27371 0 0 1.00001 3.0876e-06
329 3.39753 6.28055 0.500543 0 0 1.00001 4.16577e-06
250 4.19222 5.46109 0.325875 0 0 1.00001 4.41405e-06
256 4.9371 5.42695 1.31775 0 0 1.00001 5.43156e-06
331 4.13875 6.09484 1.22799 0 0 1.00001 5.0709e-06
333 4.82847 6.23168 0.333885 0 0 1.00001 5.80596e-06
336 4.77624 6.79724 1.15988 0 0 1.00001 6.57253e-06
330 4.00533 7.02319 0.221953 0 0 1.00001 5.39772e-06
254 5.78826 5.4196 0.301887 0 0 1.00001 6.06585e-06
335 5.69648 6.2408 0.963321 0 0 1.00001 7.15431e-06
1177 6.46167 5.98141 1.59702 0 0 1.00001 8.33559e-06
340 6.43624 6.86615 1.00952 0 0 1.00001 9.24718e-06
337 6.38127 6.03902 0.154649 0 0 1.00001 7.58996e-06
334 5.55312 7.04935 0.147332 0 0 1.00001 7.72163e-06
264 8.21719 5.31147 0.69459 0 0 1.00001 8.82917e-06
339 7.33128 6.15605 0.754546 0 0 1.00001 9.28559e-06
1098 7.39554 5.41539 1.49177 0 0 1.00001 8.57892e-06
1181 8.24344 6.10674 1.49207 0 0 1.00001 1.12549e-05
344 8.0183 6.84998 0.729164 0 0 1.00001 1.17818e-05
1178 7.2866 6.85967 1.5964 0 0 1.00001 1.1353e-05
258 7.33348 5.35499 0.0461817 0 0 1.00001 7.72245e-06
268 9.77252 5.31662 0.792941 0 0 1.00001 1.07073e-05
343 8.88501 6.18518 0.737199 0 0 1.00001 1.16686e-05
1102 9.05888 5.32395 1.59746 0 0 1.00001 1.06957e-05
1185 9.74432 6.18647 1.4679 0 0 1.00001 1.38532e-05
1182 9.09929 6.9459 1.46332 0 0 1.00001 1.49019e-05
345 9.76821 6.22872 0.0944972 0 0 1.00001 1.27683e-05
262 9.00147 5.46213 0.0131952 0 0 1.00001 9.91258e-06
347 10.5891 6.0186 0.964513 0 0 1.00001 1.38518e-05
349 11.319 6.36794 0.0780068 0 0 1.00001 1.52761e-05
346 10.525 6.9378 0.154697 0 0 1.00001 1.60122e-05
1186 10.4758 6.9214 1.49651 0 0 1.00001 1.75051e-05
270 12.005 5.62462 0.183605 0 0 1.00001 1.36262e-05
276 12.6824 5.81576 0.862318 0 0 1.00001 1.53574e-05
351 11.7842 6.20435 1.05339 0 0 1.00001 1.60941e-05
1114 13.3303 5.86442 1.55573 0 0 1.00001 1.73074e-05
355 13.3589 6.58026 0.814001 0 0 1.00001 1.88258e-05
274 13.3272 5.53678 0.0430489 0 0 1.00001 1.42747e-05
280 14.0689 5.71434 0.773386 0 0 1.00001 1.58113e-05
1197 14.3369 6.65009 1.40753 0 0 1.00001 2.11403e-05
357 14.1379 6.38323 0.038802 0 0 1.00001 1.79474e-05
278 15.0346 5.64282 0.0352842 0 0 1.00001 1.53947e-05
284 15.8382 5.73811 0.958708 0 0 1.00001 1.66801e-05
359 15.0555 6.45021 0.807477 0 0 1.00001 1.92761e-05
363 16.5 6.45354 1.14118 0 0 1.00001 2.00035e-05
1118 15.115 5.87516 1.69861 0 0 1.00001 1.87531e-05
282 16.6267 5.41992 0.277489 0 0 1.00001 1.46542e-05
361 15.6835 6.33822 0.0400675 0 0 1.00001 1.82559e-05
286 17.8337 5.30309 0.542102 0 0 1.00001 1.40989e-05
288 17.1203 5.42621 1.24829 0 0 1.00001 1.57348e-05
365 17.0701 6.27555 0.412235 0 0 1.00001 1.80203e-05
367 17.6736 6.24867 1.38586 0 0 1.00001 1.92401e-05
372 18.2837 7.05498 1.13298 0 0 1.00001 2.1784e-05
369 18.3793 6.23402 0.610862 0 0 1.00001 1.73632e-05
290 19.4358 5.76098 0.621339 0 0 1.00001 1.48134e-05
371 19.3361 6.56129 1.35118 0 0 1.00001 1.91073e-05
373 20.0017 6.75594 0.61115 0 0 1.00001 1.77863e-05
294 20.7557 5.7792 0.654322 0 0 1.00001 1.36383e-05
296 20.1995 5.61412 1.39616 0 0 1.00001 1.46483e-05
375 20.7861 6.61685 1.30424 0 0 1.00001 1.73153e-05
377 21.6654 6.66698 0.667518 0 0 1.00002 1.52248e-05
300 21.6691 5.88257 1.3855 0 0 1.00001 1.37684e-05
16260 21.6961 5.73601 0.0528444 0 0 1.00001 1.21708e-05
298 22.6783 5.83189 0.674412 0 0 1.00001 1.1495e-05
379 22.638 6.69806 1.20789 0 0 1.00001 1.44148e-05
381 23.3538 6.78456 0.268806 0 0 1.00001 1.26004e-05
304 23.4873 5.88909 1.30033 0 0 1.00001 1.11099e-05
383 24.3246 6.56737 1.15902 0 0 1.00001 1.1144e-05
302 24.15 6.01031 0.42815 0 0 1.00001 9.78826e-06
306 25.6869 5.86531 0.701279 0 0 1.00001 7.60201e-06
308 25.1167 6.04513 1.67747 0 0 1.00001 9.42101e-06
385 25.1636 6.74528 0.495731 0 0 1.00001 9.64907e-06
387 25.8295 6.59869 1.40809 0 0 1.00001 8.96721e-06
312 26.6937 5.84826 1.47649 0 0 1.00001 6.70911e-06
310 27.4996 5.54571 0.722458 0 0 1.00001 5.11414e-06
389 26.7519 6.36874 0.6522 0 0 1.00001 6.83995e-06
391 27.7043 6.47587 1.36574 0 0 1.00001 5.98421e-06
316 28.3675 5.52418 1.48721 0 0 1.00001 4.45253e-06
390 27.7129 7.01026 0.530538 0 0 1.00001 6.14575e-06
314 29.3913 5.31034 0.818881 0 0 1.00001 3.18382e-06
395 29.4405 6.18401 1.32232 0 0 1.00001 3.69139e-06
394 29.581 6.89982 0.506884 0 0 1.00001 3.71654e-06
393 28.4714 6.20809 0.639104 0 0 1.00001 4.57609e-06
16355 29.3787 6.15538 0.0804346 0 0 1.00001 3.5425e-06
16276 28.4848 5.39159 0.0595703 0 0 1.00001 3.93934e-06
318 30.9658 5.36906 0.595233 0 0 1.00001 1.97498e-06
320 30.2183 5.46063 1.46817 0 0 1.00001 2.68305e-06
397 30.3981 6.18376 0.649939 0 0 1.00001 2.64625e-06
399 31.2212 6.1559 1.38456 0 0 1.00001 2.02881e-06
398 31.2019 6.95489 0.603698 0 0 1.00001 2.08968e-06
321 31.7257 5.99676 0.446799 0 0 1.00001 1.54518e-06
401 0.264215 7.63246 0.662013 0 0 1.00001 1.24403e-06
402 0.833593 8.46351 0.619431 0 0 1.00001 1.84315e-06
403 1.11453 7.86362 1.49725 0 0 1.00001 2.24826e-06
404 0.359413 8.56287 1.47051 0 0 1.00001 1.33152e-06
405 1.59512 7.76429 0.372101 0 0 1.00001 2.66753e-06
408 1.7265 8.61661 1.46487 0 0 1.00001 3.19663e-06
326 2.49035 7.14885 0.476399 0 0 1.00001 3.5521e-06
406 2.19449 8.63234 0.399861 0 0 1.00001 3.67523e-06
407 2.39681 7.80987 1.2775 0 0 1.00001 3.85746e-06
412 3.01641 8.51282 0.935776 0 0 1.00001 5.01626e-06
409 3.24682 7.76949 0.327189 0 0 1.00001 4.84551e-06
410 3.81546 8.45685 0.082287 0 0 1.00001 6.17314e-06
411 3.98279 7.66748 1.2485 0 0 1.00001 6.191e-06
416 4.70784 8.25388 0.922208 0 0 1.00001 7.84661e-06
413 4.67349 7.63473 0.247722 0 0 1.00001 6.95599e-06
1250 3.81459 8.34632 1.76205 0 0 1.00001 6.77744e-06
414 5.87339 8.34465 0.170143 0 0 1.00001 1.00187e-05
415 5.48731 7.58735 1.03223 0 0 1.00001 8.59916e-06
417 6.49741 7.53481 0.169278 0 0 1.00001 1.00477e-05
420 6.40112 8.23492 1.0441 0 0 1.00001 1.14692e-05
419 7.2905 7.76487 0.746616 0 0 1.00001 1.22836e-05
424 8.29111 8.30879 0.869155 0 0 1.00001 1.58548e-05
1258 7.28387 8.17793 1.7016 0 0 1.00001 1.43876e-05
1261 8.0578 7.48303 1.56064 0 0 1.00001 1.43379e-05
421 8.00382 7.59911 0.0282961 0 0 1.00001 1.31036e-05
348 9.84883 7.21758 0.724012 0 0 1.00001 1.60488e-05
423 8.91778 7.6117 0.662108 0 0 1.00001 1.5285e-05
428 9.73908 8.61401 0.693655 0 0 1.00001 2.00694e-05
1262 9.09923 8.69267 1.44536 0 0 1.00001 2.00644e-05
1265 9.64823 7.88351 1.60073 0 0 1.00001 1.93305e-05
352 11.3229 7.13892 0.81098 0 0 1.00001 1.84676e-05
427 10.5805 7.94016 0.844614 0 0 1.00001 1.99828e-05
1266 10.596 8.69647 1.42624 0 0 1.00001 2.41369e-05
1269 11.4144 7.80059 1.60333 0 0 1.00001 2.30261e-05
429 11.2346 8.11395 0.0428871 0 0 1.00001 2.11769e-05
356 12.7144 7.2806 0.566647 0 0 1.00001 2.06669e-05
431 12.1866 8.23059 0.591605 0 0 1.00001 2.37831e-05
1190 12.0732 7.15415 1.37845 0 0 1.00001 2.08798e-05
1270 12.0986 8.67537 1.49129 0 0 1.00001 2.79336e-05
1273 12.87 7.99237 1.47672 0 0 1.00001 2.61165e-05
360 14.3455 7.35255 0.582992 0 0 1.00001 2.25572e-05
435 13.6262 8.09041 0.46585 0 0 1.00001 2.50436e-05
1194 13.4685 7.33737 1.34255 0 0 1.00001 2.34524e-05
1277 14.2587 8.18067 1.35346 0 0 1.00001 2.8391e-05
362 16.4422 7.18569 0.278159 0 0 1.00001 2.19647e-05
364 15.638 7.31105 0.923162 0 0 1.00001 2.34939e-05
439 15.0802 8.29163 0.866405 0 0 1.00001 2.79082e-05
443 16.2715 8.16141 1.11251 0 0 1.00001 2.81299e-05
1198 15.156 7.52192 1.62664 0 0 1.00001 2.66653e-05
441 15.8765 8.31501 0.153738 0 0 1.00001 2.70694e-05
368 16.9874 7.36399 1.11765 0 0 1.00001 2.40707e-05
445 17.0779 8.10691 0.342581 0 0 1.00001 2.59518e-05
447 17.7143 8.02703 1.02841 0 0 1.00001 2.64723e-05
366 17.825 7.16857 0.214493 0 0 1.00001 2.12435e-05
370 19.0136 7.34185 0.645023 0 0 1.00001 2.13013e-05
451 18.9379 8.1579 1.18697 0 0 1.00001 2.61953e-05
376 19.8804 7.66244 1.32782 0 0 1.00001 2.29285e-05
453 19.8122 8.14653 0.361811 0 0 1.00001 2.30992e-05
449 18.4585 8.19361 0.17064 0 0 1.00001 2.50348e-05
374 20.7067 7.46554 0.673998 0 0 1.00001 1.94042e-05
455 20.6555 8.44637 1.03747 0 0 1.00001 2.38818e-05
380 21.549 7.67863 1.15108 0 0 1.00001 1.94276e-05
457 21.619 8.35046 0.259941 0 0 1.00001 2.03167e-05
459 22.5935 8.18475 1.02155 0 0 1.00001 1.85554e-05
1218 22.4246 7.50752 1.76043 0 0 1.00001 1.84364e-05
378 22.343 7.48971 0.387328 0 0 1.00001 1.62817e-05
384 23.4506 7.32739 1.05262 0 0 1.00001 1.43814e-05
461 23.4938 8.08131 0.387396 0 0 1.00001 1.55233e-05
463 24.3489 8.10726 1.00329 0 0 1.00001 1.4256e-05
1302 24.2581 8.72567 1.68946 0 0 1.00001 1.71385e-05
382 24.344 7.33004 0.270243 0 0 1.00001 1.20773e-05
388 25.121 7.39967 1.25601 0 0 1.00001 1.14564e-05
467 26.0243 8.01053 0.989564 0 0 1.00001 1.04388e-05
1306 26.0228 8.63421 1.75849 0 0 1.00001 1.23297e-05
386 26.0957 7.28239 0.368849 0 0 1.00001 8.91338e-06
465 25.2334 8.13703 0.308706 0 0 1.00001 1.18667e-05
466 26.2768 8.59021 0.0899578 0 0 1.00001 1.03341e-05
392 26.7868 7.1156 1.34421 0 0 1.00001 8.06793e-06
470 27.9674 8.50818 0.42992 0 0 1.00001 7.03096e-06
471 27.7993 7.84167 1.21548 0 0 1.00001 7.06751e-06
472 26.9799 8.65955 1.0264 0 0 1.00001 9.3582e-06
469 26.9997 7.78707 0.435161 0 0 1.00001 8.03779e-06
396 28.6543 7.11571 1.23084 0 0 1.00001 5.15942e-06
474 29.597 8.35579 0.544822 0 0 1.00001 4.33312e-06
475 29.5005 7.68029 1.27701 0 0 1.00001 4.36329e-06
476 28.7827 8.56183 1.18667 0 0 1.00001 5.91596e-06
473 28.6981 7.72147 0.416454 0 0 1.00001 5.27082e-06
400 30.3274 7.09325 1.17999 0 0 1.00001 3.07362e-06
479 31.2528 7.82527 1.30196 0 0 1.00001 2.22453e-06
480 30.4325 8.49357 1.18451 0 0 1.00001 3.32621e-06
477 30.6392 7.8744 0.380274 0 0 1.00001 2.80926e-06
478 31.4273 8.62402 0.390838 0 0 1.00001 1.9734e-06
482 1.12241 10.2838 0.274383 0 0 1.00001 2.25383e-06
483 1.01561 9.37714 1.20656 0 0 1.00001 2.15446e-06
484 0.25513 9.9298 0.898732 0 0 1.00001 9.8534e-07
481 0.369994 9.3356 0.122803 0 0 1.00001 1.21353e-06
1322 0.811837 10.1266 1.75281 0 0 1.00001 1.93231e-06
485 1.75853 9.44463 0.452332 0 0 1.00001 3.20721e-06
488 1.82681 10.3733 0.970006 0 0 1.00001 3.55607e-06
486 2.59345 10.2743 0.0854149 0 0 1.00001 4.86765e-06
487 2.37629 9.44453 1.22288 0 0 1.00001 4.41811e-06
1326 2.77205 10.232 1.66404 0 0 1.00001 5.72635e-06
1329 3.20066 9.23462 1.65235 0 0 1.00001 6.11921e-06
489 3.07434 9.36862 0.0800928 0 0 1.00001 5.40183e-06
492 3.37938 10.0312 0.730008 0 0 1.00001 6.4507e-06
491 3.93397 9.10615 0.853744 0 0 1.00001 7.04735e-06
493 4.57885 9.17697 0.00738184 0 0 1.00001 8.23204e-06
496 4.60878 9.97289 0.570503 0 0 1.00001 9.12805e-06
1330 4.12237 9.96757 1.61709 0 0 1.00001 8.70967e-06
1333 4.67567 9.06324 1.64817 0 0 1.00001 9.23885e-06
495 5.33249 8.94002 0.658981 0 0 1.00001 9.77767e-06
500 6.24297 9.7877 0.512074 0 0 1.00001 1.31147e-05
1334 5.31373 9.82654 1.15832 0 0 1.00001 1.11876e-05
1337 6.15595 9.04602 1.25498 0 0 1.00001 1.2397e-05
1417 6.23872 10.5036 1.18152 0 0 1.00001 1.4839e-05
499 7.17038 8.87502 0.708899 0 0 1.00001 1.41359e-05
501 8.10069 9.04092 0.0805727 0 0 1.00001 1.65846e-05
504 7.96422 9.9175 0.574483 0 0 1.00001 1.84199e-05
1338 7.18348 9.73021 1.18808 0 0 1.00001 1.64531e-05
1341 8.051 9.15951 1.39527 0 0 1.00001 1.81854e-05
503 8.94593 9.4468 0.724895 0 0 1.00001 2.03879e-05
508 9.65188 10.3287 0.656033 0 0 1.00001 2.50137e-05
1342 8.75646 10.2579 1.40088 0 0 1.00001 2.34685e-05
1345 9.83866 9.58132 1.40667 0 0 1.00001 2.50825e-05
432 11.383 8.84148 0.730555 0 0 1.00001 2.48413e-05
426 10.4103 8.87965 0.0401278 0 0 1.00001 2.20589e-05
507 10.4718 9.67449 0.653138 0 0 1.00001 2.5417e-05
1346 10.6417 10.1591 1.62699 0 0 1.00001 3.08279e-05
1349 11.3117 9.62684 1.31111 0 0 1.00001 2.9408e-05
436 13.0167 8.96085 0.785426 0 0 1.00001 2.86898e-05
511 12.1185 9.80795 0.683886 0 0 1.00001 3.03304e-05
516 12.8314 10.4677 0.956865 0 0 1.00001 3.55898e-05
1353 12.5564 9.60776 1.60596 0 0 1.00001 3.39446e-05
1274 13.7026 8.83833 1.56483 0 0 1.00001 3.19865e-05
440 14.4806 9.19551 0.758825 0 0 1.00001 3.15918e-05
515 13.5427 9.67495 0.833341 0 0 1.00001 3.29319e-05
1354 13.5106 10.4032 1.70286 0 0 1.00001 4.07953e-05
517 14.2859 10.1486 0.214184 0 0 1.00001 3.47821e-05
444 15.9154 9.16046 1.13695 0 0 1.00001 3.34248e-05
1278 15.0678 9.06586 1.75957 0 0 1.00001 3.5869e-05
519 15.1469 9.85637 1.00956 0 0 1.00001 3.61717e-05
521 15.7056 10.1813 0.252608 0 0 1.00001 3.58766e-05
523 16.5222 9.96148 0.962446 0 0 1.00001 3.66046e-05
442 16.5245 9.03384 0.260565 0 0 1.00001 3.03866e-05
438 15.314 9.20616 0.0923964 0 0 1.00001 3.10399e-05
452 18.3134 8.90444 0.946801 0 0 1.00001 2.98087e-05
448 17.1092 9.07462 1.1306 0 0 1.00001 3.25341e-05
525 17.1696 10.0317 0.208813 0 0 1.00001 3.46609e-05
527 17.7911 9.87846 1.07668 0 0 1.00001 3.56339e-05
446 17.7786 9.11497 0.117531 0 0 1.00001 2.98469e-05
456 19.8341 8.97194 1.07162 0 0 1.00001 2.79157e-05
529 18.6133 9.74269 0.302 0 0 1.00001 3.17205e-05
531 19.5217 9.90991 0.856411 0 0 1.00001 3.19732e-05
532 18.7392 10.4667 1.15227 0 0 1.00001 3.72827e-05
1369 18.6736 9.59829 1.71966 0 0 1.00001 3.62387e-05
450 19.2577 8.97211 0.213158 0 0 1.00001 2.72942e-05
533 20.0028 9.79946 0.0747781 0 0 1.00001 2.90774e-05
535 20.9438 9.82496 0.758734 0 0 1.00001 2.7811e-05
1373 20.2648 9.68056 1.68629 0 0 1.00001 3.25407e-05
454 20.8044 9.0956 0.210463 0 0 1.00001 2.46725e-05
460 21.6431 9.05287 0.988475 0 0 1.00001 2.37234e-05
1298 22.4061 8.90731 1.60027 0 0 1.00001 2.27909e-05
539 22.8421 9.706 0.813437 0 0 1.00001 2.20497e-05
540 22.1104 10.545 0.88568 0 0 1.00001 2.69945e-05
1377 21.93 9.80867 1.56011 0 0 1.00001 2.72763e-05
1378 23.044 10.5342 1.46891 0 0 1.00001 2.53653e-05