ITEM: TIMESTEP
2000
ITEM: NUMBER OF ATOMS
32000
ITEM: BOX BOUNDS pp pp pp
0.0000000000000000e+00 3.1748021039364001e+01
0.0000000000000000e+00 3.1748021039364001e+01
0.0000000000000000e+00 3.1748021039364001e+01
ITEM: ATOMS id x y z c_phase c_nbond c_rho v_omega
4 0.119186 1.1024 0.464573 0 0 1.00003 1.06552e-06
83 0.977141 1.66781 0.778162 0 0 1.00003 1.74509e-06
842 0.717282 0.79296 1.41289 0 0 1.00003 1.23977e-06
921 0.00661293 1.60277 1.37456 0 0 1.00003 1.18294e-06
3 0.732026 0.0627767 0.61617 0 0 1.00003 9.3779e-07
8 1.71268 0.807928 1.01548 0 0 1.00003 1.71231e-06
85 1.80361 1.4736 0.221062 0 0 1.00003 2.11284e-06
925 1.82361 1.65915 1.76114 0 0 1.00003 2.29502e-06
6 2.52322 0.74721 0.203866 0 0 1.00003 2.04003e-06
7 2.59323 0.0519719 1.03727 0 0 1.00003 1.64856e-06
87 2.65209 1.53913 0.882797 0 0 1.00003 2.62634e-06
846 2.67096 0.813647 1.74555 0 0 1.00003 2.20676e-06
12 3.43611 0.931166 0.956533 0 0 1.00003 2.57299e-06
849 3.5008 0.0898522 1.70578 0 0 1.00003 1.99937e-06
929 3.60965 1.70522 1.71991 0 0 1.00003 3.40275e-06
10 4.10816 0.855502 0.325191 0 0 1.00003 2.75874e-06
16 4.96374 0.564412 1.17431 0 0 1.00003 2.79354e-06
93 4.92238 1.59654 0.383594 0 0 1.00003 3.84112e-06
850 4.3492 0.938535 1.62907 0 0 1.00003 3.02113e-06
9 3.47773 0.108755 0.171108 0 0 1.00003 1.96229e-06
14 5.64919 0.641895 0.325618 0 0 1.00003 2.9933e-06
95 5.88677 1.30682 0.938328 0 0 1.00003 3.93834e-06
97 6.57752 1.38718 0.218383 0 0 1.00003 4.22997e-06
854 5.78549 0.456688 1.69904 0 0 1.00003 2.91294e-06
933 5.03418 1.72039 1.43608 0 0 1.00003 4.18011e-06
20 6.71507 0.386475 0.865448 0 0 1.00003 2.82831e-06
937 6.69338 1.00547 1.69387 0 0 1.00003 3.86527e-06
24 8.26865 0.404569 1.07313 0 0 1.00003 2.8422e-06
99 7.37031 1.21868 0.954116 0 0 1.00003 4.22409e-06
101 8.24974 1.3865 0.236753 0 0 1.00003 4.64038e-06
941 8.13149 1.26763 1.6068 0 0 1.00003 4.61458e-06
18 7.58397 0.6439 0.140539 0 0 1.00003 3.24324e-06
22 8.85937 0.504171 0.273591 0 0 1.00003 2.92758e-06
28 9.55363 0.334175 0.888744 0 0 1.00003 2.48837e-06
103 9.02835 1.30281 1.11295 0 0 1.00003 4.65406e-06
945 9.57677 0.968759 1.76346 0 0 1.00003 4.08467e-06
105 9.64256 1.37018 0.090256 0 0 1.00003 4.74965e-06
32 11.2124 0.212109 0.63275 0 0 1.00003 1.73069e-06
107 10.3658 1.04347 0.823228 0 0 1.00003 3.99388e-06
866 10.5229 0.192265 1.4454 0 0 1.00003 1.93839e-06
949 11.288 1.01453 1.41791 0 0 1.00003 3.94757e-06
946 10.5837 1.67289 1.72987 0 0 1.00003 5.99422e-06
26 10.2436 0.363619 0.0779012 0 0 1.00003 2.35365e-06
36 12.8754 0.208997 0.636759 0 0 1.00003 1.2441e-06
111 12.0477 1.07076 0.506892 0 0 1.00003 3.84552e-06
870 12.1318 0.313143 1.29958 0 0 1.00003 1.75747e-06
953 12.7223 1.19556 1.37246 0 0 1.00003 4.32344e-06
40 14.3728 0.317089 0.764849 0 0 1.00003 1.26326e-06
115 13.5947 1.11067 0.843716 0 0 1.00003 3.82904e-06
117 14.0439 1.55751 0.167324 0 0 1.00003 5.21283e-06
874 13.6078 0.357709 1.63505 0 0 1.00003 1.58279e-06
957 14.3806 1.14815 1.47662 0 0 1.00003 4.03041e-06
119 14.8803 1.55229 0.663191 0 0 1.00003 5.2065e-06
44 15.7076 0.770172 0.788271 0 0 1.00003 2.6126e-06
123 16.5571 1.54499 0.681653 0 0 1.00003 5.24028e-06
878 15.1428 0.463522 1.64129 0 0 1.00003 1.75257e-06
882 16.5484 0.71286 1.34205 0 0 1.00003 2.57323e-06
961 15.6381 1.48548 1.39178 0 0 1.00003 5.23924e-06
38 15.1059 0.710645 0.0678662 0 0 1.00003 2.3301e-06
48 17.256 0.733231 0.547861 0 0 1.00003 2.60084e-06
127 17.9274 1.58304 0.757404 0 0 1.00003 5.51384e-06
886 17.9177 0.744967 1.4278 0 0 1.00003 2.9183e-06
965 17.2254 1.75035 1.56289 0 0 1.00003 6.41128e-06
51 19.5368 0.0193189 0.662785 0 0 1.00003 1.15551e-06
52 18.7934 0.727482 0.684984 0 0 1.00003 2.88608e-06
131 19.5437 1.55801 0.841901 0 0 1.00003 5.60122e-06
889 19.0275 0.16131 1.54478 0 0 1.00003 1.44641e-06
890 19.5961 0.970976 1.68952 0 0 1.00003 4.08755e-06
969 18.6611 1.51566 1.50035 0 0 1.00003 5.64756e-06
55 21.0904 0.353551 1.0674 0 0 1.00003 2.56321e-06
56 20.2511 0.779816 0.97989 0 0 1.00003 3.42872e-06
135 21.1104 1.66087 0.952068 0 0 1.00003 5.9672e-06
54 21.1892 0.76912 0.219021 0 0 1.00003 3.50465e-06
133 20.3495 1.51809 0.194322 0 0 1.00003 5.41066e-06
57 22.0098 0.26645 0.539811 0 0 1.00003 2.55622e-06
59 22.7932 0.43449 1.40695 0 0 1.00003 3.20606e-06
60 22.1138 1.1522 1.32981 0 0 1.00003 4.74497e-06
137 22.0021 1.60386 0.538573 0 0 1.00003 5.64048e-06
58 22.9185 1.07814 0.445848 0 0 1.00003 4.34346e-06
63 24.2304 0.384372 1.45117 0 0 1.00003 3.18669e-06
61 23.5688 0.361271 0.573886 0 0 1.00003 2.97076e-06
62 24.4397 1.19062 0.754824 0 0 1.00003 4.3923e-06
64 23.4794 1.25418 1.40256 0 0 1.00003 4.87768e-06
65 24.9569 0.319314 0.551987 0 0 1.00003 2.90181e-06
67 26.0105 0.386713 1.17138 0 0 1.00003 2.92079e-06
68 25.1721 1.12995 1.48044 0 0 1.00003 4.2691e-06
147 25.9341 1.73894 1.35783 0 0 1.00003 4.84677e-06
66 25.8944 0.93284 0.432205 0 0 1.00003 3.56482e-06
70 27.5768 1.28312 0.389246 0 0 1.00003 3.27517e-06
71 27.6166 0.511801 0.874349 0 0 1.00003 2.54648e-06
72 26.7588 1.03145 1.2633 0 0 1.00003 3.48476e-06
913 28.3774 0.339881 1.3983 0 0 1.00003 2.17781e-06
69 26.7945 0.243197 0.226918 0 0 1.00003 2.49037e-06
76 28.6521 1.24456 0.742298 0 0 1.00003 2.70349e-06
914 29.3938 0.94769 1.56873 0 0 1.00003 2.18317e-06
993 28.5263 1.72194 1.49767 0 0 1.00003 3.3065e-06
917 29.8157 0.175094 1.46109 0 0 1.00003 1.44769e-06
75 29.2758 0.35624 0.615379 0 0 1.00003 1.73853e-06
841 31.5897 0.266166 1.25664 0 0 1.00003 6.46538e-07
79 30.7042 0.490556 0.470981 0 0 1.00003 1.15499e-06
80 30.1037 1.19995 0.774236 0 0 1.00003 1.87599e-06
918 30.8677 0.972602 1.39384 0 0 1.00003 1.37435e-06
82 1.11432 2.43541 0.129319 0 0 1.00003 2.17652e-06
84 0.137002 2.38224 0.81232 0 0 1.00003 1.51802e-06
163 1.29237 3.2367 0.949234 0 0 1.00003 2.68865e-06
922 1.14335 2.36017 1.59165 0 0 1.00003 2.2085e-06
1001 0.390632 3.03021 1.54954 0 0 1.00003 1.92834e-06
161 0.336171 3.096 0.131535 0 0 1.00003 1.88909e-06
88 1.91332 2.41732 0.783904 0 0 1.00003 2.71441e-06
167 2.66255 3.27829 0.860919 0 0 1.00003 3.87766e-06
926 2.67293 2.22743 1.53397 0 0 1.00003 3.19725e-06
1009 3.26252 3.42376 1.64957 0 0 1.00003 4.71583e-06
86 2.72952 2.37983 0.0558027 0 0 1.00003 3.25058e-06
92 3.38567 2.55179 0.779489 0 0 1.00003 3.88114e-06
91 4.01001 1.83814 0.711304 0 0 1.00003 3.63945e-06
96 4.91763 2.56916 0.815828 0 0 1.00003 5.04597e-06
171 4.20594 3.31426 0.749609 0 0 1.00003 5.31866e-06
930 4.13676 2.63794 1.58328 0 0 1.00003 4.6845e-06
94 5.65443 2.43899 0.132935 0 0 1.00003 5.34346e-06
100 6.56172 2.17652 0.772893 0 0 1.00003 5.53122e-06
175 5.6538 3.19173 0.952759 0 0 1.00003 6.55746e-06
934 5.86494 2.19045 1.49675 0 0 1.00003 5.31592e-06
1017 6.52619 3.06203 1.55562 0 0 1.00003 7.33695e-06
177 6.65507 2.92355 0.134173 0 0 1.00003 6.82164e-06
98 7.45808 2.22142 0.139843 0 0 1.00003 6.02042e-06
104 8.08668 2.19739 0.93063 0 0 1.00003 6.365e-06
179 7.40694 3.06313 0.933876 0 0 1.00003 7.80685e-06
938 7.30346 2.0558 1.56871 0 0 1.00003 5.90738e-06
1021 8.1919 2.99623 1.65213 0 0 1.00003 8.61177e-06
181 8.27513 2.96607 0.0393655 0 0 1.00003 8.07779e-06
102 8.90832 2.08262 0.252409 0 0 1.00003 6.29629e-06
108 9.77711 2.01989 1.10975 0 0 1.00003 6.5579e-06
183 8.9328 2.96733 0.928934 0 0 1.00003 8.66906e-06
942 9.03566 2.21571 1.7043 0 0 1.00003 7.12206e-06
185 9.56732 2.90077 0.213003 0 0 1.00003 8.67179e-06
106 10.288 2.10919 0.214132 0 0 1.00003 6.73698e-06
112 11.1626 1.8223 0.771289 0 0 1.00003 6.13796e-06
187 10.6282 2.80329 0.921669 0 0 1.00003 9.08444e-06
1029 11.452 2.82539 1.57557 0 0 1.00003 9.8932e-06
116 12.6786 1.93811 0.594202 0 0 1.00003 6.56156e-06
191 11.9348 2.63741 0.742366 0 0 1.00003 8.87746e-06
950 11.9291 1.91681 1.46542 0 0 1.00003 6.72651e-06
1033 12.8544 3.01419 1.68691 0 0 1.00003 1.12324e-05
195 13.1888 3.02673 0.848606 0 0 1.00003 1.06811e-05
954 13.3843 1.98874 1.48082 0 0 1.00003 7.10759e-06
120 14.0277 2.44249 0.927108 0 0 1.00003 8.56456e-06
1037 14.0391 3.38151 1.5574 0 0 1.00003 1.30041e-05
199 14.7069 3.4354 0.884876 0 0 1.00003 1.27381e-05
958 14.7901 2.29676 1.44792 0 0 1.00003 8.38319e-06
118 14.8488 2.51347 0.137086 0 0 1.00003 8.68225e-06
197 14.168 3.22354 0.0335954 0 0 1.00003 1.13879e-05
114 13.4197 2.29155 0.0592539 0 0 1.00003 7.7323e-06
124 15.7063 2.44319 0.693404 0 0 1.00003 8.56104e-06
203 16.3131 3.2014 0.663374 0 0 1.00003 1.16648e-05
962 16.3161 2.4801 1.52596 0 0 1.00003 9.26975e-06
1041 15.3811 3.25672 1.5024 0 0 1.00003 1.25843e-05
201 15.5801 3.25797 0.0203112 0 0 1.00003 1.17174e-05
128 17.0717 2.35182 0.683211 0 0 1.00003 8.2503e-06
207 17.9527 2.92873 0.700355 0 0 1.00003 1.04616e-05
966 18.027 2.44173 1.58169 0 0 1.00003 9.13012e-06
1045 17.1021 3.11788 1.49554 0 0 1.00003 1.19492e-05
132 18.8977 2.36077 1.01389 0 0 1.00003 8.41117e-06
211 19.7118 3.247 1.27827 0 0 1.00003 1.18088e-05
209 18.8923 2.99946 0.196508 0 0 1.00003 1.04557e-05
130 19.5936 2.34529 0.102279 0 0 1.00003 8.01989e-06
973 20.3303 1.79265 1.72468 0 0 1.00003 6.78747e-06
134 21.1631 2.42117 0.45875 0 0 1.00003 8.05724e-06
136 20.2018 2.47273 1.11444 0 0 1.00003 8.68104e-06
215 21.319 3.30092 1.39311 0 0 1.00003 1.12999e-05
213 20.4298 2.99801 0.335378 0 0 1.00003 1.00777e-05
139 22.8775 2.07472 1.50914 0 0 1.00003 6.99662e-06
138 22.9776 2.60722 0.73585 0 0 1.00003 7.93353e-06
140 22.1019 2.50427 1.23818 0 0 1.00003 8.27131e-06
217 21.997 3.20598 0.599759 0 0 1.00003 1.00835e-05
16179 22.6855 3.4067 0.0761186 0 0 1.00003 1.00767e-05
141 23.7479 1.81293 0.624295 0 0 1.00003 5.74088e-06
143 24.4334 1.99246 1.61054 0 0 1.00003 6.17322e-06
142 24.3476 2.68793 0.775571 0 0 1.00003 7.29765e-06
144 23.6951 2.90847 1.53649 0 0 1.00003 8.62933e-06
223 24.4801 3.51717 1.55735 0 0 1.00003 9.40236e-06
16108 24.9616 2.84991 0.0154354 0 0 1.00003 7.04872e-06
149 26.5521 1.79761 0.511677 0 0 1.00003 4.41352e-06
145 25.1363 1.86016 0.510001 0 0 1.00003 5.24343e-06
146 25.7968 2.61632 0.707738 0 0 1.00003 6.12259e-06
148 25.1635 2.56083 1.52536 0 0 1.00003 6.77572e-06
227 25.7277 3.50363 1.51258 0 0 1.00003 8.02622e-06
152 26.5411 2.56456 1.5305 0 0 1.00003 5.71973e-06
229 26.1747 3.50562 0.599356 0 0 1.00003 7.20104e-06
151 27.5077 1.98874 1.23785 0 0 1.00003 4.17644e-06
153 28.2528 2.09289 0.344096 0 0 1.00003 3.65577e-06
150 27.0914 2.69612 0.645485 0 0 1.00003 5.2094e-06
231 27.2054 3.35837 1.4169 0 0 1.00003 6.17935e-06
156 28.258 2.76107 1.20635 0 0 1.00003 4.4296e-06
233 27.9868 3.22343 0.327144 0 0 1.00003 5.01312e-06
997 29.9604 1.81064 1.7076 0 0 1.00003 2.46336e-06
155 29.4512 2.04858 0.879992 0 0 1.00003 2.84792e-06
154 29.1995 2.66149 0.290921 0 0 1.00003 3.45037e-06
235 29.2541 3.2675 1.17413 0 0 1.00003 3.99865e-06
159 30.9148 1.9857 0.924331 0 0 1.00003 1.84361e-06
160 30.1855 2.71252 1.00204 0 0 1.00003 2.77503e-06
239 31.0289 3.35377 0.971383 0 0 1.00003 2.45068e-06
998 30.9904 2.69581 1.72656 0 0 1.00003 2.24791e-06
237 30.1138 3.26081 0.133017 0 0 1.00003 3.11637e-06
157 30.4149 1.91008 0.025973 0 0 1.00003 2.08269e-06
158 31.1471 2.66461 0.0764099 0 0 1.00003 1.98571e-06
164 0.298242 3.78509 0.918812 0 0 1.00003 2.06276e-06
241 0.147746 4.59506 0.482215 0 0 1.00003 2.10418e-06
243 1.14496 4.67012 0.986866 0 0 1.00003 3.16958e-06
244 0.0937011 5.26742 1.27778 0 0 1.00003 2.18191e-06
162 1.04511 3.86344 0.0600757 0 0 1.00003 2.73014e-06
168 1.84594 4.04457 0.847303 0 0 1.00003 3.59348e-06
247 2.54555 4.85357 1.13732 0 0 1.00003 4.95223e-06
166 2.65421 4.14257 0.206796 0 0 1.00003 4.47299e-06
245 1.90255 4.96716 0.27869 0 0 1.00003 4.13046e-06
249 3.41315 4.85866 0.161822 0 0 1.00003 5.97798e-06
172 3.49876 4.07377 0.886037 0 0 1.00003 5.40083e-06
176 4.91795 3.99603 1.18315 0 0 1.00003 7.04497e-06
251 4.05274 4.87607 1.14666 0 0 1.00003 7.04391e-06
170 4.26532 4.18128 0.148949 0 0 1.00003 6.3302e-06
253 5.01554 4.73553 0.340903 0 0 1.00003 8.03199e-06
174 5.78257 3.93324 0.198452 0 0 1.00003 7.75831e-06
180 6.49548 3.76128 0.772577 0 0 1.00003 8.31294e-06
255 5.68752 4.73071 1.02532 0 0 1.00003 9.16495e-06
1097 6.67101 4.50553 1.64332 0 0 1.00003 1.05225e-05
260 6.68832 5.12539 0.885064 0 0 1.00003 1.13997e-05
184 8.20582 3.88589 0.701204 0 0 1.00003 1.03979e-05
259 7.41598 4.45473 0.547195 0 0 1.00003 1.08213e-05
1018 7.40631 3.86441 1.49728 0 0 1.00003 9.89516e-06
1101 8.20957 4.60404 1.48695 0 0 1.00003 1.28744e-05
188 9.90563 3.57261 0.886032 0 0 1.00003 1.1079e-05
263 9.08839 4.55904 0.821625 0 0 1.00003 1.33533e-05
265 9.87216 4.49729 0.126743 0 0 1.00003 1.38058e-05
1022 9.08628 3.75672 1.49865 0 0 1.00003 1.14057e-05
1105 9.87991 4.33981 1.65591 0 0 1.00003 1.43362e-05
182 8.99322 3.86231 0.0631703 0 0 1.00003 1.0967e-05
192 11.4172 3.63996 0.77944 0 0 1.00003 1.22766e-05
267 10.6002 4.65958 0.906666 0 0 1.00003 1.55363e-05
269 11.3982 4.68825 0.23061 0 0 1.00003 1.60393e-05
1026 10.7154 3.56184 1.58848 0 0 1.00003 1.21837e-05
1109 11.3774 4.36658 1.70566 0 0 1.00003 1.60682e-05
272 11.4032 5.26608 0.985291 0 0 1.00003 1.89506e-05
186 10.5919 3.84319 0.176226 0 0 1.00003 1.22856e-05
196 12.5257 3.57423 0.815057 0 0 1.00003 1.25651e-05
271 12.2038 4.54538 1.00063 0 0 1.00003 1.66482e-05
1113 12.7537 4.99139 1.68957 0 0 1.00003 2.022e-05
275 13.2394 4.67585 0.800749 0 0 1.00003 1.76768e-05
273 12.6551 4.61416 0.0634175 0 0 1.00003 1.6703e-05
200 14.0019 4.12533 0.697119 0 0 1.00003 1.54747e-05
1034 13.4973 4.21463 1.59373 0 0 1.00003 1.67333e-05
1117 14.221 5.11493 1.5211 0 0 1.00003 2.14788e-05
279 14.9562 5.01016 0.812449 0 0 1.00003 2.01313e-05
1038 14.98 4.41488 1.59488 0 0 1.00003 1.82881e-05
277 14.1548 4.90278 0.0615265 0 0 1.00003 1.88596e-05
198 14.9734 4.19237 0.0978122 0 0 1.00003 1.57668e-05
204 15.6811 4.06615 0.926572 0 0 1.00003 1.57419e-05
281 15.8936 4.77547 0.187392 0 0 1.00003 1.86369e-05
283 16.608 4.58191 0.901099 0 0 1.00003 1.81362e-05
1042 16.3325 3.95993 1.6906 0 0 1.00003 1.62687e-05
1121 15.829 5.05255 1.6418 0 0 1.00003 2.19175e-05
208 17.2809 3.83561 0.811869 0 0 1.00003 1.44852e-05
287 18.1 4.49212 1.09873 0 0 1.00003 1.7593e-05
1046 17.9647 3.64143 1.65644 0 0 1.00003 1.43972e-05
285 17.4696 4.57962 0.0161649 0 0 1.00003 1.74619e-05
206 18.1461 3.85727 0.0597775 0 0 1.00003 1.40605e-05
212 18.8883 3.71085 0.951242 0 0 1.00003 1.36343e-05
289 18.8366 4.614 0.362761 0 0 1.00003 1.71573e-05
291 19.7031 4.6841 1.08267 0 0 1.00003 1.75139e-05
292 18.8013 5.28245 1.20182 0 0 1.00003 2.11542e-05
210 19.6088 3.77152 0.228799 0 0 1.00003 1.31957e-05
216 20.4489 3.82771 1.23407 0 0 1.00003 1.35823e-05
295 20.8971 4.72591 1.39471 0 0 1.00003 1.69759e-05
297 21.5902 4.95897 0.810797 0 0 1.00003 1.64379e-05
214 21.0928 3.93742 0.513275 0 0 1.00003 1.30446e-05
293 20.1473 4.79163 0.353128 0 0 1.00003 1.69865e-05
219 22.8293 3.63805 1.42142 0 0 1.00003 1.12534e-05
220 21.9507 4.14015 1.31127 0 0 1.00003 1.35687e-05
299 22.4827 5.18515 1.27411 0 0 1.00003 1.65083e-05
218 22.622 4.35376 0.511696 0 0 1.00003 1.29985e-05
221 23.5813 3.6448 0.783037 0 0 1.00003 1.01454e-05
222 24.3441 4.32744 0.62579 0 0 1.00003 1.09262e-05
224 23.4774 4.55676 1.33428 0 0 1.00003 1.31287e-05
305 24.861 5.26418 0.567497 0 0 1.00003 1.23576e-05
301 23.5615 5.07189 0.534385 0 0 1.00003 1.39066e-05
228 25.0173 4.50723 1.62334 0 0 1.00003 1.10907e-05
225 25.0697 3.68536 0.802242 0 0 1.00003 8.73065e-06
303 24.3728 5.29713 1.43442 0 0 1.00003 1.39149e-05
307 25.6991 5.14628 1.3434 0 0 1.00003 1.11938e-05
232 26.3645 4.29606 1.37204 0 0 1.00003 8.5799e-06
309 26.5099 4.97866 0.641462 0 0 1.00003 9.2145e-06
226 25.536 4.40699 0.38938 0 0 1.00003 9.49698e-06
311 27.337 4.87519 1.40598 0 0 1.00003 8.13226e-06
236 27.9679 3.98034 1.10449 0 0 1.00003 6.02198e-06
313 28.283 4.73913 0.706715 0 0 1.00003 6.35633e-06
230 27.0733 4.04768 0.570933 0 0 1.00003 7.01824e-06
234 28.9369 3.77329 0.487319 0 0 1.00003 4.62534e-06
315 29.0927 4.52656 1.33095 0 0 1.00003 5.27478e-06
240 30.0026 4.07383 1.02357 0 0 1.00003 3.81169e-06
238 31.0341 3.97524 0.373348 0 0 1.00003 2.68507e-06
317 30.2097 4.68028 0.491235 0 0 1.00003 3.8844e-06
319 30.9832 4.60097 1.41108 0 0 1.00003 3.11845e-06
242 0.913546 5.53145 0.461919 0 0 1.00003 3.14475e-06
248 1.53708 5.51049 1.37982 0 0 1.00003 4.03605e-06
323 0.799442 6.21948 1.27703 0 0 1.00003 3.21666e-06
324 0.262637 6.91812 1.50748 0 0 1.00003 2.51356e-06
322 0.975764 6.94455 0.57355 0 0 1.00003 3.5395e-06
328 1.71134 7.02681 1.23851 0 0 1.00003 4.89582e-06
325 1.90125 6.19779 0.518985 0 0 1.00003 4.75747e-06
252 3.11115 5.6141 1.30057 0 0 1.00003 6.42417e-06
327 2.26984 6.15115 1.41007 0 0 1.00003 5.49342e-06
332 3.26102 6.9581 1.12816 0 0 1.00003 7.80857e-06
246 2.68744 5.60991 0.273753 0 0 1.00003 5.58356e-06
329 3.40151 6.27765 0.500377 0 0 1.00003 7.32085e-06
250 4.19618 5.45818 0.325866 0 0 1.00003 7.76292e-06
256 4.94152 5.42351 1.31745 0 0 1.00003 9.25476e-06
331 4.14276 6.09142 1.22805 0 0 1.00003 8.68684e-06
333 4.83304 6.22802 0.33378 0 0 1.00003 9.91555e-06
336 4.78117 6.79344 1.15994 0 0 1.00003 1.09437e-05
330 4.0096 7.01944 0.222107 0 0 1.00003 9.23184e-06
254 5.79247 5.41541 0.301769 0 0 1.00003 1.03322e-05
335 5.70129 6.23617 0.963248 0 0 1.00003 1.18806e-05
1177 6.46765 5.97672 1.59715 0 0 1.00003 1.34589e-05
340 6.44235 6.86101 1.00903 0 0 1.00003 1.48789e-05
337 6.3871 6.03518 0.154477 0 0 1.00003 1.2608e-05
334 5.55828 7.04456 0.14745 0 0 1.00003 1.2759e-05
264 8.22316 5.30701 0.694768 0 0 1.00003 1.42823e-05
339 7.33718 6.15081 0.754644 0 0 1.00003 1.49832e-05
1098 7.40166 5.41051 1.49201 0 0 1.00003 1.37984e-05
1181 8.25033 6.10141 1.49237 0 0 1.00003 1.75094e-05
344 8.02565 6.84436 0.729088 0 0 1.00003 1.84632e-05
1178 7.29353 6.85351 1.59659 0 0 1.00003 1.76449e-05
258 7.33885 5.35066 0.0459798 0 0 1.00003 1.27788e-05
268 9.77972 5.31238 0.7931 0 0 1.00003 1.67913e-05
343 8.89253 6.17991 0.737261 0 0 1.00003 1.82516e-05
1102 9.06574 5.31921 1.59727 0 0 1.00003 1.66093e-05
1185 9.75275 6.18079 1.46827 0 0 1.00003 2.09217e-05
1182 9.10746 6.94002 1.46335 0 0 1.00003 2.23985e-05
345 9.77587 6.22385 0.0946277 0 0 1.00003 1.97817e-05
262 9.00824 5.45789 0.0136496 0 0 1.00003 1.58359e-05
347 10.598 6.01384 0.964225 0 0 1.00003 2.10024e-05
349 11.3282 6.36324 0.0779484 0 0 1.00003 2.30394e-05
346 10.5343 6.93272 0.154465 0 0 1.00003 2.41302e-05
1186 10.4855 6.91584 1.49655 0 0 1.00003 2.56835e-05
270 12.0136 5.62074 0.183679 0 0 1.00003 2.06816e-05
276 12.692 5.8121 0.862453 0 0 1.00003 2.28055e-05
351 11.7936 6.2003 1.05349 0 0 1.00003 2.38418e-05
1114 13.3413 5.86152 1.55644 0 0 1.00003 2.49861e-05
355 13.3701 6.57675 0.813753 0 0 1.00003 2.73738e-05
274 13.3363 5.53428 0.0431506 0 0 1.00003 2.14346e-05
280 14.0791 5.71263 0.77367 0 0 1.00003 2.33127e-05
1197 14.3484 6.648 1.40819 0 0 1.00003 2.99851e-05
357 14.1486 6.38122 0.0390317 0 0 1.00003 2.63302e-05
278 15.0439 5.64151 0.0356817 0 0 1.00003 2.28474e-05
284 15.8488 5.73812 0.958524 0 0 1.00003 2.4327e-05
359 15.0667 6.44932 0.807623 0 0 1.00003 2.78438e-05
363 16.5115 6.45469 1.14182 0 0 1.00003 2.86193e-05
1118 15.1267 5.87414 1.69875 0 0 1.00003 2.66446e-05
282 16.6364 5.42089 0.277564 0 0 1.00003 2.18178e-05
361 15.6946 6.33833 0.0405123 0 0 1.00003 2.66782e-05
286 17.8432 5.30571 0.542276 0 0 1.00003 2.10748e-05
288 17.1303 5.42786 1.24849 0 0 1.00003 2.29733e-05
365 17.0813 6.27738 0.412371 0 0 1.00003 2.63311e-05
367 17.6848 6.25134 1.38585 0 0 1.00003 2.75523e-05
372 18.2952 7.05885 1.13408 0 0 1.00003 3.10331e-05
369 18.3899 6.23705 0.61149 0 0 1.00003 2.54791e-05
290 19.4453 5.7647 0.62166 0 0 1.00003 2.21498e-05
371 19.3465 6.56586 1.35114 0 0 1.00003 2.75348e-05
373 20.0117 6.76061 0.611534 0 0 1.00003 2.61572e-05
294 20.7646 5.78378 0.654461 0 0 1.00003 2.06538e-05
296 20.2082 5.6186 1.39651 0 0 1.00003 2.17223e-05
375 20.7956 6.62243 1.30465 0 0 1.00003 2.53373e-05
377 21.6738 6.67293 0.66816 0 0 1.00003 2.28336e-05
300 21.6771 5.88782 1.38544 0 0 1.00003 2.06627e-05
16260 21.704 5.741 0.0534386 0 0 1.00003 1.8786e-05
298 22.6855 5.83757 0.674192 0 0 1.00003 1.78121e-05
379 22.6459 6.70423 1.20818 0 0 1.00003 2.16166e-05
381 23.3611 6.79015 0.269408 0 0 1.00003 1.93644e-05
304 23.4942 5.89483 1.30026 0 0 1.00003 1.71494e-05
383 24.3314 6.57363 1.15968 0 0 1.00003 1.72016e-05
302 24.1561 6.0154 0.428313 0 0 1.00003 1.5472e-05
306 25.6923 5.87007 0.701329 0 0 1.00003 1.22763e-05
308 25.1226 6.05045 1.67746 0 0 1.00003 1.46842e-05
385 25.1696 6.75054 0.49601 0 0 1.00003 1.51921e-05
387 25.8356 6.60441 1.40828 0 0 1.00003 1.40492e-05
312 26.6985 5.85282 1.47653 0 0 1.00003 1.0812e-05
310 27.5038 5.54932 0.722561 0 0 1.00003 8.50475e-06
389 26.7567 6.37326 0.652259 0 0 1.00003 1.1079e-05
391 27.7086 6.47976 1.36598 0 0 1.00003 9.65772e-06
316 28.3714 5.5273 1.48704 0 0 1.00003 7.3664e-06
390 27.7174 7.01438 0.530697 0 0 1.00003 9.93866e-06
314 29.3946 5.31245 0.818892 0 0 1.00003 5.38696e-06
395 29.4441 6.18658 1.32241 0 0 1.00003 6.10137e-06
394 29.5847 6.90269 0.507161 0 0 1.00003 6.13041e-06
393 28.4753 6.21131 0.639462 0 0 1.00003 7.58567e-06
16355 29.3822 6.15738 0.0805085 0 0 1.00003 5.93481e-06
16276 28.4884 5.3944 0.0596316 0 0 1.00003 6.66259e-06
318 30.9689 5.36979 0.595341 0 0 1.00003 3.34032e-06
320 30.2217 5.46211 1.46808 0 0 1.00003 4.49131e-06
397 30.4014 6.18525 0.649995 0 0 1.00003 4.42951e-06
399 31.2245 6.15661 1.38461 0 0 1.00003 3.36435e-06
398 31.2054 6.95567 0.603888 0 0 1.00003 3.44909e-06
321 31.729 5.99711 0.446953 0 0 1.00003 2.57855e-06
401 0.267722 7.63257 0.662034 0 0 1.00003 2.4381e-06
402 0.837405 8.46296 0.619351 0 0 1.00003 3.41074e-06
403 1.11815 7.86244 1.49724 0 0 1.00003 4.04627e-06
404 0.363015 8.56268 1.47054 0 0 1.00003 2.54594e-06
405 1.59887 7.76282 0.372281 0 0 1.00003 4.7986e-06
408 1.73049 8.61482 1.46487 0 0 1.00003 5.50004e-06
326 2.49404 7.1465 0.476333 0 0 1.00003 6.27656e-06
406 2.19861 8.62982 0.399927 0 0 1.00003 6.3473e-06
407 2.40084 7.80746 1.27761 0 0 1.00003 6.63976e-06
412 3.02086 8.50964 0.935925 0 0 1.00003 8.41215e-06
409 3.25096 7.76611 0.327257 0 0 1.00003 8.29027e-06
410 3.82018 8.45285 0.0821415 0 0 1.00003 1.02659e-05
411 3.98755 7.66287 1.24805 0 0 1.00003 1.02582e-05
416 4.71286 8.2493 0.922622 0 0 1.00003 1.27158e-05
413 4.67868 7.63047 0.247427 0 0 1.00003 1.15526e-05
1250 3.81955 8.34251 1.76237 0 0 1.00003 1.09284e-05
414 5.87934 8.33882 0.170317 0 0 1.00003 1.59619e-05
415 5.49301 7.58177 1.03184 0 0 1.00003 1.38828e-05
417 6.50337 7.52958 0.169221 0 0 1.00003 1.60956e-05
420 6.40766 8.22757 1.04418 0 0 1.00003 1.78781e-05
419 7.29756 7.75832 0.746744 0 0 1.00003 1.91318e-05
424 8.29858 8.30179 0.869326 0 0 1.00003 2.389e-05
1258 7.29128 8.16996 1.70139 0 0 1.00003 2.16158e-05
1261 8.06589 7.4763 1.5606 0 0 1.00003 2.16539e-05
421 8.01128 7.59305 0.0281407 0 0 1.00003 2.03524e-05
348 9.85709 7.21143 0.724355 0 0 1.00003 2.41402e-05
423 8.92613 7.6052 0.662252 0 0 1.00003 2.31936e-05
428 9.74828 8.60658 0.693885 0 0 1.00003 2.94355e-05
1262 9.10789 8.68452 1.44549 0 0 1.00003 2.91056e-05
1265 9.65863 7.8761 1.60056 0 0 1.00003 2.80831e-05
352 11.3323 7.1337 0.810915 0 0 1.00003 2.71594e-05
427 10.5905 7.93333 0.844526 0 0 1.00003 2.92218e-05
1266 10.6064 8.68981 1.42668 0 0 1.00003 3.4229e-05
1269 11.4252 7.79519 1.60324 0 0 1.00003 3.26207e-05
429 11.245 8.10802 0.0431018 0 0 1.00003 3.09135e-05
356 12.7256 7.2772 0.567092 0 0 1.00003 2.99731e-05
431 12.1978 8.22485 0.592027 0 0 1.00003 3.40759e-05
1190 12.0852 7.14948 1.37886 0 0 1.00003 2.99333e-05
1270 12.1103 8.66928 1.4918 0 0 1.00003 3.87891e-05
1273 12.882 7.98823 1.47704 0 0 1.00003 3.64335e-05
360 14.3563 7.35046 0.584676 0 0 1.00003 3.22689e-05
435 13.6381 8.0874 0.466687 0 0 1.00003 3.55863e-05
1194 13.4816 7.33387 1.34339 0 0 1.00003 3.30764e-05
1277 14.2722 8.17713 1.35398 0 0 1.00003 3.92306e-05
362 16.4543 7.18657 0.278915 0 0 1.00003 3.15239e-05
364 15.6509 7.31054 0.922482 0 0 1.00003 3.3243e-05
439 15.0936 8.29048 0.866599 0 0 1.00003 3.89305e-05
443 16.2851 8.16224 1.11267 0 0 1.00003 3.90114e-05
1198 15.1688 7.52092 1.62802 0 0 1.00003 3.67827e-05
441 15.8885 8.31449 0.154101 0 0 1.00003 3.81246e-05
368 17.0001 7.3655 1.11795 0 0 1.00003 3.38869e-05
445 17.0898 8.10917 0.342135 0 0 1.00003 3.66589e-05
447 17.7277 8.03051 1.02935 0 0 1.00003 3.70225e-05
366 17.8368 7.17183 0.215438 0 0 1.00003 3.0646e-05
370 19.0254 7.34622 0.644857 0 0 1.00003 3.06641e-05
451 18.9501 8.16302 1.18723 0 0 1.00003 3.66265e-05
376 19.8919 7.66818 1.32795 0 0 1.00003 3.24819e-05
453 19.8231 8.15195 0.362384 0 0 1.00003 3.30825e-05
449 18.4709 8.19786 0.172083 0 0 1.00003 3.55506e-05
374 20.7168 7.47162 0.673977 0 0 1.00003 2.82852e-05
455 20.6667 8.45307 1.03784 0 0 1.00003 3.38334e-05
380 21.5589 7.68545 1.15133 0 0 1.00003 2.81512e-05
457 21.6286 8.35757 0.26082 0 0 1.00003 2.95189e-05
459 22.6024 8.19256 1.0217 0 0 1.00003 2.70332e-05
1218 22.4339 7.51492 1.76074 0 0 1.00003 2.66098e-05
378 22.3517 7.49627 0.387812 0 0 1.00003 2.42704e-05
384 23.4585 7.33446 1.05346 0 0 1.00003 2.15864e-05
461 23.5014 8.08877 0.387429 0 0 1.00003 2.31841e-05
463 24.3561 8.11432 1.0034 0 0 1.00003 2.13182e-05
1302 24.2657 8.73486 1.69028 0 0 1.00003 2.47768e-05
382 24.3506 7.33632 0.270895 0 0 1.00003 1.85802e-05
388 25.1275 7.40609 1.25613 0 0 1.00003 1.75023e-05
467 26.0302 8.01695 0.990074 0 0 1.00003 1.60298e-05
1306 26.0289 8.64149 1.75874 0 0 1.00003 1.8302e-05
386 26.101 7.28754 0.369339 0 0 1.00003 1.40578e-05
465 25.2395 8.14325 0.309328 0 0 1.00003 1.81463e-05
466 26.2822 8.59658 0.0905111 0 0 1.00003 1.58823e-05
392 26.7921 7.12092 1.34426 0 0 1.00003 1.26831e-05
470 27.9719 8.51293 0.429941 0 0 1.00003 1.1031e-05
471 27.8041 7.84624 1.21559 0 0 1.00003 1.11023e-05
472 26.9852 8.66566 1.02669 0 0 1.00003 1.43408e-05
469 27.0048 7.79228 0.435441 0 0 1.00003 1.26709e-05
396 28.6584 7.1191 1.23099 0 0 1.00003 8.32003e-06
474 29.6009 8.359 0.544982 0 0 1.00003 6.91804e-06
475 29.5044 7.68325 1.27722 0 0 1.00003 6.9933e-06
476 28.7868 8.56587 1.18686 0 0 1.00003 9.24996e-06
473 28.7023 7.72521 0.416723 0 0 1.00003 8.48356e-06
400 30.3311 7.09504 1.18014 0 0 1.00003 5.02443e-06
479 31.2564 7.82611 1.30199 0 0 1.00003 3.58447e-06
480 30.4362 8.49557 1.1847 0 0 1.00003 5.27448e-06
477 30.6428 7.87598 0.380527 0 0 1.00003 4.55858e-06
478 31.4308 8.62465 0.391021 0 0 1.00003 3.14677e-06
482 1.12594 10.2825 0.274356 0 0 1.00003 3.93959e-06
483 1.01942 9.37592 1.20647 0 0 1.00003 3.82019e-06
484 0.258721 9.92989 0.89882 0 0 1.00003 1.95452e-06
481 0.373531 9.33558 0.122948 0 0 1.00003 2.36012e-06
1322 0.815574 10.1257 1.75281 0 0 1.00003 3.36656e-06
485 1.76219 9.4428 0.452288 0 0 1.00003 5.51866e-06
488 1.83052 10.3705 0.970003 0 0 1.00003 5.90265e-06
486 2.59724 10.2708 0.0852344 0 0 1.00003 7.98731e-06
487 2.38025 9.44152 1.22279 0 0 1.00003 7.31979e-06
1326 2.77613 10.228 1.66416 0 0 1.00003 9.06822e-06
1329 3.20559 9.2306 1.65265 0 0 1.00003 9.83315e-06
489 3.07857 9.36475 0.0803106 0 0 1.00003 8.94847e-06
492 3.38373 10.0269 0.730354 0 0 1.00003 1.03685e-05
491 3.93869 9.10155 0.853909 0 0 1.00003 1.14057e-05
493 4.58369 9.17203 0.00728928 0 0 1.00003 1.32287e-05
496 4.61338 9.96721 0.570442 0 0 1.00003 1.43404e-05
1330 4.12722 9.96173 1.61662 0 0 1.00003 1.34712e-05
1333 4.68097 9.05738 1.64796 0 0 1.00003 1.43967e-05
495 5.33799 8.93441 0.658957 0 0 1.00003 1.54649e-05
500 6.24889 9.78062 0.512389 0 0 1.00003 2.00396e-05
1334 5.31978 9.81984 1.15893 0 0 1.00003 1.71736e-05
1337 6.16227 9.03964 1.25518 0 0 1.00003 1.89887e-05
1417 6.24482 10.4957 1.18196 0 0 1.00003 2.20494e-05
499 7.17726 8.86777 0.709215 0 0 1.00003 2.15648e-05
501 8.10841 9.03331 0.0807215 0 0 1.00003 2.4953e-05
504 7.97191 9.90929 0.574505 0 0 1.00003 2.71971e-05
1338 7.19002 9.72211 1.1884 0 0 1.00003 2.43903e-05
1341 8.0589 9.15114 1.39525 0 0 1.00003 2.66736e-05
503 8.95434 9.4384 0.724962 0 0 1.00003 2.97971e-05
508 9.66039 10.3194 0.656469 0 0 1.00003 3.56699e-05
1342 8.76481 10.2474 1.40122 0 0 1.00003 3.33086e-05
1345 9.84803 9.57207 1.40709 0 0 1.00003 3.54234e-05
432 11.3933 8.83481 0.730751 0 0 1.00003 3.54471e-05
426 10.4202 8.8721 0.0397874 0 0 1.00003 3.21049e-05
507 10.4816 9.66646 0.653519 0 0 1.00003 3.62453e-05
1346 10.6521 10.1504 1.62721 0 0 1.00003 4.23152e-05
1349 11.3238 9.61868 1.31175 0 0 1.00003 4.08389e-05
436 13.0276 8.95518 0.785584 0 0 1.00003 4.01347e-05
511 12.1291 9.80104 0.684471 0 0 1.00003 4.23456e-05
516 12.8429 10.4618 0.95694 0 0 1.00003 4.86518e-05
1353 12.5696 9.60162 1.6065 0 0 1.00003 4.60605e-05
1274 13.7155 8.83541 1.56538 0 0 1.00003 4.35698e-05
440 14.4929 9.19254 0.75939 0 0 1.00003 4.36848e-05
515 13.5554 9.67179 0.834055 0 0 1.00003 4.54009e-05
1354 13.5238 10.3987 1.70293 0 0 1.00003 5.41554e-05
517 14.2977 10.1449 0.214906 0 0 1.00003 4.79938e-05
444 15.9285 9.16047 1.13716 0 0 1.00003 4.55945e-05
1278 15.0823 9.06426 1.75982 0 0 1.00003 4.79854e-05
519 15.1599 9.85557 1.01024 0 0 1.00003 4.91605e-05
521 15.7177 10.1808 0.252688 0 0 1.00003 4.92515e-05
523 16.535 9.9632 0.96313 0 0 1.00003 4.96685e-05
442 16.5367 9.03586 0.261303 0 0 1.00003 4.23093e-05
438 15.3257 9.20483 0.0943287 0 0 1.00003 4.32107e-05
452 18.326 8.90949 0.947424 0 0 1.00003 4.12615e-05
448 17.1224 9.07681 1.13091 0 0 1.00003 4.44824e-05
525 17.1821 10.0344 0.208897 0 0 1.00003 4.76438e-05
527 17.8039 9.88236 1.07707 0 0 1.00003 4.83212e-05
446 17.791 9.11858 0.11829 0 0 1.00003 4.16329e-05
456 19.8459 8.97881 1.07146 0 0 1.00003 3.88254e-05
529 18.6251 9.74839 0.302677 0 0 1.00003 4.39011e-05
531 19.5328 9.91733 0.857609 0 0 1.00003 4.39234e-05
532 18.751 10.4737 1.15297 0 0 1.00003 5.01998e-05
1369 18.6864 9.60487 1.72006 0 0 1.00003 4.84698e-05
450 19.2689 8.97794 0.213643 0 0 1.00003 3.84017e-05
533 20.014 9.80694 0.0749758 0 0 1.00003 4.05714e-05
535 20.9542 9.83377 0.759876 0 0 1.00003 3.87484e-05
1373 20.2758 9.68964 1.68656 0 0 1.00003 4.40239e-05
454 20.8144 9.10262 0.210538 0 0 1.00003 3.50463e-05
460 21.6527 9.06105 0.988597 0 0 1.00003 3.35837e-05
1298 22.4162 8.91626 1.60103 0 0 1.00003 3.20925e-05
539 22.8502 9.7159 0.814016 0 0 1.00003 3.13826e-05
540 22.1195 10.5547 0.885047 0 0 1.00003 3.74699e-05
1377 21.9406 9.81876 1.56016 0 0 1.00003 3.75932e-05
1378 23.052 10.5449 1.46902 0 0 1.00003 3.50712e-05