ITEM: TIMESTEP
55000
ITEM: NUMBER OF ATOMS
11903
ITEM: BOX BOUNDS ff ff pp
0.0000000000000000e+00 2.2000000000000000e+01
-1.0000000000000000e+01 1.0000000000000000e+01
-2.0000000000000000e-02 2.0000000000000000e-02
ITEM: ATOMS id type x y vx vy fx fy c_den c_phase
1501 2 2 -10 0 0 0 0 1 5
1535 2 2 -9.8 0 0 0 0 1 5
1569 2 2 -9.6 0 0 0 0 1 5
1502 2 2.2 -10 0 0 0 0 1 5
1503 2 2.4 -10 0 0 0 0 1 5
1536 2 2.2 -9.8 0 0 0 0 1 5
1537 2 2.4 -9.8 0 0 0 0 1 5
1570 2 2.2 -9.6 0 0 0 0 1 5
1571 2 2.4 -9.6 0 0 0 0 1 5
1504 2 2.6 -10 0 0 0 0 1 5
1505 2 2.8 -10 0 0 0 0 1 5
1538 2 2.6 -9.8 0 0 0 0 1 5
1539 2 2.8 -9.8 0 0 0 0 1 5
1572 2 2.6 -9.6 0 0 0 0 1 5
1573 2 2.8 -9.6 0 0 0 0 1 5
1506 2 3 -10 0 0 0 0 1 5
1540 2 3 -9.8 0 0 0 0 1 5
1574 2 3 -9.6 0 0 0 0 1 5
1507 2 3.2 -10 0 0 0 0 1 5
1541 2 3.2 -9.8 0 0 0 0 1 5
1575 2 3.2 -9.6 0 0 0 0 1 5
1508 2 3.4 -10 0 0 0 0 1 5
1542 2 3.4 -9.8 0 0 0 0 1 5
1576 2 3.4 -9.6 0 0 0 0 1 5
1509 2 3.6 -10 0 0 0 0 1 5
1543 2 3.6 -9.8 0 0 0 0 1 5
1577 2 3.6 -9.6 0 0 0 0 1 5
1510 2 3.8 -10 0 0 0 0 1 5
1544 2 3.8 -9.8 0 0 0 0 1 5
1578 2 3.8 -9.6 0 0 0 0 1 5
1511 2 4 -10 0 0 0 0 1 5
1512 2 4.2 -10 0 0 0 0 1 5
1545 2 4 -9.8 0 0 0 0 1 5
1546 2 4.2 -9.8 0 0 0 0 1 5
1579 2 4 -9.6 0 0 0 0 1 5
1580 2 4.2 -9.6 0 0 0 0 1 5
1513 2 4.4 -10 0 0 0 0 1 5
1514 2 4.6 -10 0 0 0 0 1 5
1547 2 4.4 -9.8 0 0 0 0 1 5
1548 2 4.6 -9.8 0 0 0 0 1 5
1581 2 4.4 -9.6 0 0 0 0 1 5
1582 2 4.6 -9.6 0 0 0 0 1 5
1515 2 4.8 -10 0 0 0 0 1 5
1516 2 5 -10 0 0 0 0 1 5
1549 2 4.8 -9.8 0 0 0 0 1 5
1550 2 5 -9.8 0 0 0 0 1 5
1583 2 4.8 -9.6 0 0 0 0 1 5
1584 2 5 -9.6 0 0 0 0 1 5
1517 2 5.2 -10 0 0 0 0 1 5
1518 2 5.4 -10 0 0 0 0 1 5
1551 2 5.2 -9.8 0 0 0 0 1 5
1552 2 5.4 -9.8 0 0 0 0 1 5
1585 2 5.2 -9.6 0 0 0 0 1 5
1586 2 5.4 -9.6 0 0 0 0 1 5
1519 2 5.6 -10 0 0 0 0 1 5
1553 2 5.6 -9.8 0 0 0 0 1 5
1587 2 5.6 -9.6 0 0 0 0 1 5
1520 2 5.8 -10 0 0 0 0 1 5
1554 2 5.8 -9.8 0 0 0 0 1 5
1588 2 5.8 -9.6 0 0 0 0 1 5
1521 2 6 -10 0 0 0 0 1 5
1555 2 6 -9.8 0 0 0 0 1 5
1589 2 6 -9.6 0 0 0 0 1 5
1522 2 6.2 -10 0 0 0 0 1 5
1523 2 6.4 -10 0 0 0 0 1 5
1556 2 6.2 -9.8 0 0 0 0 1 5
1557 2 6.4 -9.8 0 0 0 0 1 5
1590 2 6.2 -9.6 0 0 0 0 1 5
1591 2 6.4 -9.6 0 0 0 0 1 5
1524 2 6.6 -10 0 0 0 0 1 5
1525 2 6.8 -10 0 0 0 0 1 5
1558 2 6.6 -9.8 0 0 0 0 1 5
1559 2 6.8 -9.8 0 0 0 0 1 5
1592 2 6.6 -9.6 0 0 0 0 1 5
1593 2 6.8 -9.6 0 0 0 0 1 5
1526 2 7 -10 0 0 0 0 1 5
1527 2 7.2 -10 0 0 0 0 1 5
1560 2 7 -9.8 0 0 0 0 1 5
1561 2 7.2 -9.8 0 0 0 0 1 5
1594 2 7 -9.6 0 0 0 0 1 5
1595 2 7.2 -9.6 0 0 0 0 1 5
1603 2 2 -9.4 0 0 0 0 1 5
1637 2 2 -9.2 0 0 0 0 1 5
1604 2 2.2 -9.4 0 0 0 0 1 5
1605 2 2.4 -9.4 0 0 0 0 1 5
1638 2 2.2 -9.2 0 0 0 0 1 5
1639 2 2.4 -9.2 0 0 0 0 1 5
1606 2 2.6 -9.4 0 0 0 0 1 5
1607 2 2.8 -9.4 0 0 0 0 1 5
1640 2 2.6 -9.2 0 0 0 0 1 5
1641 2 2.8 -9.2 0 0 0 0 1 5
1608 2 3 -9.4 0 0 0 0 1 5
1642 2 3 -9.2 0 0 0 0 1 5
1609 2 3.2 -9.4 0 0 0 0 1 5
1643 2 3.2 -9.2 0 0 0 0 1 5
1610 2 3.4 -9.4 0 0 0 0 1 5
1644 2 3.4 -9.2 0 0 0 0 1 5
1611 2 3.6 -9.4 0 0 0 0 1 5
1645 2 3.6 -9.2 0 0 0 0 1 5
1612 2 3.8 -9.4 0 0 0 0 1 5
1646 2 3.8 -9.2 0 0 0 0 1 5
1613 2 4 -9.4 0 0 0 0 1 5
1614 2 4.2 -9.4 0 0 0 0 1 5
1647 2 4 -9.2 0 0 0 0 1 5
1648 2 4.2 -9.2 0 0 0 0 1 5
1615 2 4.4 -9.4 0 0 0 0 1 5
1616 2 4.6 -9.4 0 0 0 0 1 5
1649 2 4.4 -9.2 0 0 0 0 1 5
1650 2 4.6 -9.2 0 0 0 0 1 5
1617 2 4.8 -9.4 0 0 0 0 1 5
1618 2 5 -9.4 0 0 0 0 1 5
1651 2 4.8 -9.2 0 0 0 0 1 5
1652 2 5 -9.2 0 0 0 0 1 5
1619 2 5.2 -9.4 0 0 0 0 1 5
1620 2 5.4 -9.4 0 0 0 0 1 5
1653 2 5.2 -9.2 0 0 0 0 1 5
1654 2 5.4 -9.2 0 0 0 0 1 5
1621 2 5.6 -9.4 0 0 0 0 1 5
1655 2 5.6 -9.2 0 0 0 0 1 5
1622 2 5.8 -9.4 0 0 0 0 1 5
1656 2 5.8 -9.2 0 0 0 0 1 5
1623 2 6 -9.4 0 0 0 0 1 5
1657 2 6 -9.2 0 0 0 0 1 5
1624 2 6.2 -9.4 0 0 0 0 1 5
1625 2 6.4 -9.4 0 0 0 0 1 5
1658 2 6.2 -9.2 0 0 0 0 1 5
1659 2 6.4 -9.2 0 0 0 0 1 5
1626 2 6.6 -9.4 0 0 0 0 1 5
1627 2 6.8 -9.4 0 0 0 0 1 5
1660 2 6.6 -9.2 0 0 0 0 1 5
1661 2 6.8 -9.2 0 0 0 0 1 5
1628 2 7 -9.4 0 0 0 0 1 5
1629 2 7.2 -9.4 0 0 0 0 1 5
1662 2 7 -9.2 0 0 0 0 1 5
1663 2 7.2 -9.2 0 0 0 0 1 5
1671 2 2 -9 0 0 0 0 1 5
1705 2 2 -8.8 0 0 0 0 1 5
1672 2 2.2 -9 0 0 0 0 1 5
1673 2 2.4 -9 0 0 0 0 1 5
1706 2 2.2 -8.8 0 0 0 0 1 5
1707 2 2.4 -8.8 0 0 0 0 1 5
1674 2 2.6 -9 0 0 0 0 1 5
1675 2 2.8 -9 0 0 0 0 1 5
1708 2 2.6 -8.8 0 0 0 0 1 5
1709 2 2.8 -8.8 0 0 0 0 1 5
1676 2 3 -9 0 0 0 0 1 5
1710 2 3 -8.8 0 0 0 0 1 5
1677 2 3.2 -9 0 0 0 0 1 5
1711 2 3.2 -8.8 0 0 0 0 1 5
1678 2 3.4 -9 0 0 0 0 1 5
1712 2 3.4 -8.8 0 0 0 0 1 5
1679 2 3.6 -9 0 0 0 0 1 5
1713 2 3.6 -8.8 0 0 0 0 1 5
1680 2 3.8 -9 0 0 0 0 1 5
1714 2 3.8 -8.8 0 0 0 0 1 5
1681 2 4 -9 0 0 0 0 1 5
1682 2 4.2 -9 0 0 0 0 1 5
1715 2 4 -8.8 0 0 0 0 1 5
1716 2 4.2 -8.8 0 0 0 0 1 5
1683 2 4.4 -9 0 0 0 0 1 5
1684 2 4.6 -9 0 0 0 0 1 5
1717 2 4.4 -8.8 0 0 0 0 1 5
1718 2 4.6 -8.8 0 0 0 0 1 5
1685 2 4.8 -9 0 0 0 0 1 5
1686 2 5 -9 0 0 0 0 1 5
1719 2 4.8 -8.8 0 0 0 0 1 5
1720 2 5 -8.8 0 0 0 0 1 5
1687 2 5.2 -9 0 0 0 0 1 5
1688 2 5.4 -9 0 0 0 0 1 5
1721 2 5.2 -8.8 0 0 0 0 1 5
1722 2 5.4 -8.8 0 0 0 0 1 5
1689 2 5.6 -9 0 0 0 0 1 5
1723 2 5.6 -8.8 0 0 0 0 1 5
1690 2 5.8 -9 0 0 0 0 1 5
1724 2 5.8 -8.8 0 0 0 0 1 5
1691 2 6 -9 0 0 0 0 1 5
1725 2 6 -8.8 0 0 0 0 1 5
1692 2 6.2 -9 0 0 0 0 1 5
1693 2 6.4 -9 0 0 0 0 1 5
1726 2 6.2 -8.8 0 0 0 0 1 5
1727 2 6.4 -8.8 0 0 0 0 1 5
1694 2 6.6 -9 0 0 0 0 1 5
1695 2 6.8 -9 0 0 0 0 1 5
1728 2 6.6 -8.8 0 0 0 0 1 5
1729 2 6.8 -8.8 0 0 0 0 1 5
1696 2 7 -9 0 0 0 0 1 5
1697 2 7.2 -9 0 0 0 0 1 5
1730 2 7 -8.8 0 0 0 0 1 5
1731 2 7.2 -8.8 0 0 0 0 1 5
1739 2 2 -8.6 0 0 0 0 1 5
1773 2 2 -8.4 0 0 0 0 1 5
1740 2 2.2 -8.6 0 0 0 0 1 5
1741 2 2.4 -8.6 0 0 0 0 1 5
1774 2 2.2 -8.4 0 0 0 0 1 5
1775 2 2.4 -8.4 0 0 0 0 1 5
1742 2 2.6 -8.6 0 0 0 0 1 5
1743 2 2.8 -8.6 0 0 0 0 1 5
1776 2 2.6 -8.4 0 0 0 0 1 5
1777 2 2.8 -8.4 0 0 0 0 1 5
1744 2 3 -8.6 0 0 0 0 1 5
1778 2 3 -8.4 0 0 0 0 1 5
1745 2 3.2 -8.6 0 0 0 0 1 5
1779 2 3.2 -8.4 0 0 0 0 1 5
1746 2 3.4 -8.6 0 0 0 0 1 5
1780 2 3.4 -8.4 0 0 0 0 1 5
1747 2 3.6 -8.6 0 0 0 0 1 5
1781 2 3.6 -8.4 0 0 0 0 1 5
1748 2 3.8 -8.6 0 0 0 0 1 5
1782 2 3.8 -8.4 0 0 0 0 1 5
1749 2 4 -8.6 0 0 0 0 1 5
1750 2 4.2 -8.6 0 0 0 0 1 5
1783 2 4 -8.4 0 0 0 0 1 5
1784 2 4.2 -8.4 0 0 0 0 1 5
1751 2 4.4 -8.6 0 0 0 0 1 5
1752 2 4.6 -8.6 0 0 0 0 1 5
1785 2 4.4 -8.4 0 0 0 0 1 5
1786 2 4.6 -8.4 0 0 0 0 1 5
1753 2 4.8 -8.6 0 0 0 0 1 5
1754 2 5 -8.6 0 0 0 0 1 5
1787 2 4.8 -8.4 0 0 0 0 1 5
1788 2 5 -8.4 0 0 0 0 1 5
1755 2 5.2 -8.6 0 0 0 0 1 5
1756 2 5.4 -8.6 0 0 0 0 1 5
1789 2 5.2 -8.4 0 0 0 0 1 5
1790 2 5.4 -8.4 0 0 0 0 1 5
1757 2 5.6 -8.6 0 0 0 0 1 5
1791 2 5.6 -8.4 0 0 0 0 1 5
1758 2 5.8 -8.6 0 0 0 0 1 5
1792 2 5.8 -8.4 0 0 0 0 1 5
1759 2 6 -8.6 0 0 0 0 1 5
1793 2 6 -8.4 0 0 0 0 1 5
1760 2 6.2 -8.6 0 0 0 0 1 5
1761 2 6.4 -8.6 0 0 0 0 1 5
1794 2 6.2 -8.4 0 0 0 0 1 5
1795 2 6.4 -8.4 0 0 0 0 1 5
1762 2 6.6 -8.6 0 0 0 0 1 5
1763 2 6.8 -8.6 0 0 0 0 1 5
1796 2 6.6 -8.4 0 0 0 0 1 5
1797 2 6.8 -8.4 0 0 0 0 1 5
1764 2 7 -8.6 0 0 0 0 1 5
1765 2 7.2 -8.6 0 0 0 0 1 5
1798 2 7 -8.4 0 0 0 0 1 5
1799 2 7.2 -8.4 0 0 0 0 1 5
1807 2 2 -8.2 0 0 0 0 1 5
1841 2 2 -8 0 0 0 0 1 5
1808 2 2.2 -8.2 0 0 0 0 1 5
1809 2 2.4 -8.2 0 0 0 0 1 5
1842 2 2.2 -8 0 0 0 0 1 5
1843 2 2.4 -8 0 0 0 0 1 5
1810 2 2.6 -8.2 0 0 0 0 1 5
1811 2 2.8 -8.2 0 0 0 0 1 5
1844 2 2.6 -8 0 0 0 0 1 5
1845 2 2.8 -8 0 0 0 0 1 5
1812 2 3 -8.2 0 0 0 0 1 5
1846 2 3 -8 0 0 0 0 1 5
1813 2 3.2 -8.2 0 0 0 0 1 5
1847 2 3.2 -8 0 0 0 0 1 5
1814 2 3.4 -8.2 0 0 0 0 1 5
1848 2 3.4 -8 0 0 0 0 1 5
1815 2 3.6 -8.2 0 0 0 0 1 5
1849 2 3.6 -8 0 0 0 0 1 5
1816 2 3.8 -8.2 0 0 0 0 1 5
1850 2 3.8 -8 0 0 0 0 1 5
1817 2 4 -8.2 0 0 0 0 1 5
1818 2 4.2 -8.2 0 0 0 0 1 5
1851 2 4 -8 0 0 0 0 1 5
1852 2 4.2 -8 0 0 0 0 1 5
1819 2 4.4 -8.2 0 0 0 0 1 5
1820 2 4.6 -8.2 0 0 0 0 1 5
1853 2 4.4 -8 0 0 0 0 1 5
1854 2 4.6 -8 0 0 0 0 1 5
1821 2 4.8 -8.2 0 0 0 0 1 5
1822 2 5 -8.2 0 0 0 0 1 5
1855 2 4.8 -8 0 0 0 0 1 5
1856 2 5 -8 0 0 0 0 1 5
1823 2 5.2 -8.2 0 0 0 0 1 5
1824 2 5.4 -8.2 0 0 0 0 1 5
1857 2 5.2 -8 0 0 0 0 1 5
1858 2 5.4 -8 0 0 0 0 1 5
1825 2 5.6 -8.2 0 0 0 0 1 5
1859 2 5.6 -8 0 0 0 0 1 5
1826 2 5.8 -8.2 0 0 0 0 1 5
1860 2 5.8 -8 0 0 0 0 1 5
1827 2 6 -8.2 0 0 0 0 1 5
1861 2 6 -8 0 0 0 0 1 5
1828 2 6.2 -8.2 0 0 0 0 1 5
1829 2 6.4 -8.2 0 0 0 0 1 5
1862 2 6.2 -8 0 0 0 0 1 5
1863 2 6.4 -8 0 0 0 0 1 5
1830 2 6.6 -8.2 0 0 0 0 1 5
1831 2 6.8 -8.2 0 0 0 0 1 5
1864 2 6.6 -8 0 0 0 0 1 5
1865 2 6.8 -8 0 0 0 0 1 5
1832 2 7 -8.2 0 0 0 0 1 5
1833 2 7.2 -8.2 0 0 0 0 1 5
1866 2 7 -8 0 0 0 0 1 5
1867 2 7.2 -8 0 0 0 0 1 5
1875 2 2 -7.8 0 0 0 0 1 5
1909 2 2 -7.6 0 0 0 0 1 5
1943 2 2 -7.4 0 0 0 0 1.00349 5
1876 2 2.2 -7.8 0 0 0 0 1 5
1877 2 2.4 -7.8 0 0 0 0 1 5
1910 2 2.2 -7.6 0 0 0 0 1 5
1911 2 2.4 -7.6 0 0 0 0 1 5
1944 2 2.2 -7.4 0 0 0 0 1.00119 5
1945 2 2.4 -7.4 0 0 0 0 0.996656 5
1878 2 2.6 -7.8 0 0 0 0 1 5
1879 2 2.8 -7.8 0 0 0 0 1 5
1912 2 2.6 -7.6 0 0 0 0 1 5
1913 2 2.8 -7.6 0 0 0 0 1 5
1946 2 2.6 -7.4 0 0 0 0 1.00157 5
1947 2 2.8 -7.4 0 0 0 0 1.00061 5
1880 2 3 -7.8 0 0 0 0 1 5
1914 2 3 -7.6 0 0 0 0 1 5
1948 2 3 -7.4 0 0 0 0 1.00144 5
1881 2 3.2 -7.8 0 0 0 0 1 5
1915 2 3.2 -7.6 0 0 0 0 1 5
1949 2 3.2 -7.4 0 0 0 0 0.995539 5
1882 2 3.4 -7.8 0 0 0 0 1 5
1916 2 3.4 -7.6 0 0 0 0 1 5
1950 2 3.4 -7.4 0 0 0 0 1.00144 5
1883 2 3.6 -7.8 0 0 0 0 1 5
1917 2 3.6 -7.6 0 0 0 0 1 5
1951 2 3.6 -7.4 0 0 0 0 1.00113 5
1884 2 3.8 -7.8 0 0 0 0 1 5
1918 2 3.8 -7.6 0 0 0 0 1 5
1952 2 3.8 -7.4 0 0 0 0 1.02147 5
1885 2 4 -7.8 0 0 0 0 1 5
1886 2 4.2 -7.8 0 0 0 0 1 5
1919 2 4 -7.6 0 0 0 0 1 5
1920 2 4.2 -7.6 0 0 0 0 1 5
1953 2 4 -7.4 0 0 0 0 1.03142 5
1954 2 4.2 -7.4 0 0 0 0 1.03894 5
1887 2 4.4 -7.8 0 0 0 0 1 5
1888 2 4.6 -7.8 0 0 0 0 1 5
1921 2 4.4 -7.6 0 0 0 0 1 5
1922 2 4.6 -7.6 0 0 0 0 1 5
1955 2 4.4 -7.4 0 0 0 0 1.03659 5
1956 2 4.6 -7.4 0 0 0 0 1.03334 5
1889 2 4.8 -7.8 0 0 0 0 1 5
1890 2 5 -7.8 0 0 0 0 1 5
1923 2 4.8 -7.6 0 0 0 0 1 5
1924 2 5 -7.6 0 0 0 0 1 5
1957 2 4.8 -7.4 0 0 0 0 1.03283 5
1958 2 5 -7.4 0 0 0 0 1.03278 5
1891 2 5.2 -7.8 0 0 0 0 1 5
1892 2 5.4 -7.8 0 0 0 0 1 5
1925 2 5.2 -7.6 0 0 0 0 1 5
1926 2 5.4 -7.6 0 0 0 0 1 5
1959 2 5.2 -7.4 0 0 0 0 1.0328 5
1960 2 5.4 -7.4 0 0 0 0 1.03277 5
1893 2 5.6 -7.8 0 0 0 0 1 5
1927 2 5.6 -7.6 0 0 0 0 1 5
1961 2 5.6 -7.4 0 0 0 0 1.03293 5
1894 2 5.8 -7.8 0 0 0 0 1 5
1928 2 5.8 -7.6 0 0 0 0 1 5
1962 2 5.8 -7.4 0 0 0 0 1.0329 5
1895 2 6 -7.8 0 0 0 0 1 5
1929 2 6 -7.6 0 0 0 0 1 5
1963 2 6 -7.4 0 0 0 0 1.03281 5
1896 2 6.2 -7.8 0 0 0 0 1 5
1897 2 6.4 -7.8 0 0 0 0 1 5
1930 2 6.2 -7.6 0 0 0 0 1 5
1931 2 6.4 -7.6 0 0 0 0 1 5
1964 2 6.2 -7.4 0 0 0 0 1.03302 5
1965 2 6.4 -7.4 0 0 0 0 1.03292 5
1898 2 6.6 -7.8 0 0 0 0 1 5
1899 2 6.8 -7.8 0 0 0 0 1 5
1932 2 6.6 -7.6 0 0 0 0 1 5
1933 2 6.8 -7.6 0 0 0 0 1 5
1966 2 6.6 -7.4 0 0 0 0 1.03294 5
1967 2 6.8 -7.4 0 0 0 0 1.03289 5
1900 2 7 -7.8 0 0 0 0 1 5
1901 2 7.2 -7.8 0 0 0 0 1 5
1934 2 7 -7.6 0 0 0 0 1 5
1935 2 7.2 -7.6 0 0 0 0 1 5
1968 2 7 -7.4 0 0 0 0 1.03287 5
1969 2 7.2 -7.4 0 0 0 0 1.03272 5
1977 2 2 -7.2 0 0 0 0 1.0056 5
2011 2 2 -7 0 0 0 0 1.00528 5
1978 2 2.2 -7.2 0 0 0 0 1.00059 5
1979 2 2.4 -7.2 0 0 0 0 0.998835 5
2012 2 2.2 -7 0 0 0 0 1.00064 5
2013 2 2.4 -7 0 0 0 0 0.999591 5
1980 2 2.6 -7.2 0 0 0 0 1.00017 5
1981 2 2.8 -7.2 0 0 0 0 1.00042 5
2014 2 2.6 -7 0 0 0 0 1.00015 5
2015 2 2.8 -7 0 0 0 0 1.00018 5
1982 2 3 -7.2 0 0 0 0 0.999776 5
2016 2 3 -7 0 0 0 0 0.999741 5
1983 2 3.2 -7.2 0 0 0 0 0.998533 5
2017 2 3.2 -7 0 0 0 0 0.999322 5
1984 2 3.4 -7.2 0 0 0 0 1.00123 5
2018 2 3.4 -7 0 0 0 0 1.00081 5
1985 2 3.6 -7.2 0 0 0 0 1.00168 5
2019 2 3.6 -7 0 0 0 0 1.00335 5
1986 2 3.8 -7.2 0 0 0 0 1.01593 5
2020 2 3.8 -7 0 0 0 0 1.0157 5
1987 2 4 -7.2 0 0 0 0 1.02661 5
1988 2 4.2 -7.2 0 0 0 0 1.03513 5
2021 2 4 -7 0 0 0 0 1.02347 5
2022 2 4.2 -7 0 0 0 0 1.03201 5
1989 2 4.4 -7.2 0 0 0 0 1.03963 5
1990 2 4.6 -7.2 0 0 0 0 1.03483 5
2023 2 4.4 -7 0 0 0 0 1.03962 5
2024 2 4.6 -7 0 0 0 0 1.03594 5
1991 2 4.8 -7.2 0 0 0 0 1.0337 5
1992 2 5 -7.2 0 0 0 0 1.03376 5
2025 2 4.8 -7 0 0 0 0 1.03439 5
2026 2 5 -7 0 0 0 0 1.03435 5
1993 2 5.2 -7.2 0 0 0 0 1.03365 5
1994 2 5.4 -7.2 0 0 0 0 1.03364 5
2027 2 5.2 -7 0 0 0 0 1.03428 5
2028 2 5.4 -7 0 0 0 0 1.03425 5
1995 2 5.6 -7.2 0 0 0 0 1.03364 5
2029 2 5.6 -7 0 0 0 0 1.03416 5
1996 2 5.8 -7.2 0 0 0 0 1.0336 5
2030 2 5.8 -7 0 0 0 0 1.03414 5
1997 2 6 -7.2 0 0 0 0 1.03359 5
2031 2 6 -7 0 0 0 0 1.03411 5
1998 2 6.2 -7.2 0 0 0 0 1.03357 5
1999 2 6.4 -7.2 0 0 0 0 1.03358 5
2032 2 6.2 -7 0 0 0 0 1.03406 5
2033 2 6.4 -7 0 0 0 0 1.0341 5
2000 2 6.6 -7.2 0 0 0 0 1.03356 5
2001 2 6.8 -7.2 0 0 0 0 1.03348 5
2034 2 6.6 -7 0 0 0 0 1.03408 5
2035 2 6.8 -7 0 0 0 0 1.034 5
2002 2 7 -7.2 0 0 0 0 1.0334 5
2003 2 7.2 -7.2 0 0 0 0 1.0333 5
2036 2 7 -7 0 0 0 0 1.03389 5
2037 2 7.2 -7 0 0 0 0 1.03379 5
13640 1 2.01371 -6.73915 0.02 0 -0.00415593 -0.000741763 1 2
13642 1 2.04751 -6.55076 0.02 0 0.000291876 0.000216058 1 2
13641 1 2.21892 -6.76661 0.02 0 -0.00268889 -0.000406291 1 2
13643 1 2.23519 -6.57535 0.02 0 0.00041644 0.000601695 1 2
13646 1 2.42812 -6.56407 0.02 0 0.000171073 0.000322731 1 2
13644 1 2.43461 -6.74572 0.02 0 -0.00239525 -0.000364337 1 2
13645 1 2.63309 -6.75043 0.02 0 -0.00287923 -0.000399346 1 2
13647 1 2.63566 -6.56481 0.02 0 0.000131678 0.000357208 1 2
13648 1 2.82654 -6.74604 0.02 0 -0.00271569 -0.000507722 1 2
13650 1 2.84728 -6.56288 0.02 0 0.000136873 0.000476209 1 2
13649 1 3.02585 -6.75916 0.02 0 -0.00311686 -0.000486692 1 2
13651 1 3.04774 -6.56544 0.02 0 0.000108285 0.000451311 1 2
13652 1 3.22203 -6.73676 0.02 0 -0.00241166 -0.000447119 1 2
13654 1 3.24608 -6.55608 0.02 0 0.000133815 0.000478978 1 2
13653 1 3.42387 -6.74294 0.02 0 -0.00280127 -0.000351002 1 2
13655 1 3.43569 -6.55023 0.02 0 0.000162265 0.000415178 1 2
13656 1 3.61944 -6.75335 0.02 0 -0.00385348 1.251e-05 1 2
13658 1 3.62714 -6.55919 0.02 0 -0.000767312 0.000461272 1 2
13657 1 3.8148 -6.74187 0.02 0 -0.00774722 -0.00016178 1 2
13659 1 3.83054 -6.56681 0.02 0 -0.00439543 0.000177639 1 2
13274 1 3.9999 -6.75484 0.02 0 -0.00775973 6.62314e-05 1.01381 2
13275 1 4.00197 -6.55928 0.0103758 0.000985018 -0.000258817 0.000101313 1.02441 0
13270 1 3.99995 -6.72104 0.02 0 -0.0066962 0.000212005 1.02541 2
13272 1 4.00019 -6.54527 0.0182152 0.000155098 -0.00713935 0.000620394 1.02482 0
13271 1 4.22271 -6.62039 0.00857079 0.00244579 -0.000259313 -0.000322057 1.04222 0
13273 1 4.17171 -6.48764 0.00986653 0.00248905 2.03681e-06 -1.7537e-06 1.04168 0
13276 1 4.07212 -6.82306 0.00240389 -0.00158407 -0.000731157 0.000249675 1.04441 0
13277 1 4.51253 -6.51302 0.0108068 0.00175032 3.74642e-05 -3.88016e-06 1.03627 0
13279 1 4.36004 -6.5891 0.00937833 0.00174257 -1.97658e-05 -4.98343e-05 1.03997 0
13280 1 4.27672 -6.77593 0.00405508 -0.000866889 -0.000287932 -3.78933e-05 1.04666 0
13281 1 4.65716 -6.6016 0.00828153 0.00104692 3.26954e-05 -8.6296e-06 1.03453 0
13284 1 4.46544 -6.67671 0.00737555 0.00056437 6.74363e-07 -1.24025e-05 1.0369 0
13289 1 4.537 -6.79546 0.00442112 -0.000336954 8.60342e-06 -9.24231e-06 1.03718 0
13285 1 4.82862 -6.52321 0.00851993 0.00131384 3.5203e-05 -1.29122e-05 1.03444 0
12936 1 4.70468 -6.74181 0.00462589 0.000205937 2.03609e-05 -1.00942e-05 1.03487 0
12940 1 4.861 -6.65532 0.00566129 0.000649102 2.7661e-05 -1.16037e-05 1.03413 0
12934 1 5.02693 -6.57041 0.00644689 0.000862847 2.8678e-05 -1.08088e-05 1.03421 0
12944 1 5.17887 -6.51904 0.00659872 0.000916777 2.18429e-05 -7.62227e-06 1.03412 0
12949 1 4.89705 -6.80659 0.00258281 -0.000406032 1.78461e-05 -9.35286e-06 1.03587 0
12953 1 5.05782 -6.70005 0.00375366 0.000254553 2.05646e-05 -8.54107e-06 1.03429 0
12604 1 5.18029 -6.75594 0.00253644 -0.000149039 1.27981e-05 -5.16832e-06 1.03489 0
12941 1 5.29146 -6.58789 0.00508568 0.000589038 1.37548e-05 -5.46095e-06 1.03383 0
12609 1 5.42075 -6.59874 0.00456034 0.000493325 5.85344e-06 -2.73603e-06 1.03371 0
12601 1 5.61415 -6.56427 0.00468907 0.000525243 -2.35032e-06 5.61755e-07 1.03357 0
12617 1 5.33501 -6.79337 0.00190099 -0.000403434 6.12449e-06 -2.05883e-06 1.03539 0
12288 1 5.50866 -6.69938 0.00283402 0.000128246 1.50111e-06 -5.47186e-07 1.034 0
11882 1 5.62058 -6.77607 0.00176987 -0.000311843 -1.34102e-06 1.17671e-06 1.03499 0
12600 1 5.75285 -6.5078 0.00521769 0.000562938 -6.87597e-06 2.57003e-06 1.03355 0
12612 1 5.84035 -6.60407 0.00378356 0.000335189 -7.27847e-06 3.02496e-06 1.03351 0
11544 1 5.77791 -6.75433 0.00189411 -0.000203213 -4.28539e-06 2.4032e-06 1.0346 0
12292 1 5.99062 -6.61816 0.00345265 0.000266307 -8.2495e-06 3.80309e-06 1.03352 0
11552 1 5.9471 -6.78953 0.00150746 -0.000411812 -4.89536e-06 2.97633e-06 1.03506 0
12295 1 6.15981 -6.57231 0.003915 0.000296098 -9.08658e-06 4.82716e-06 1.03345 0
11164 1 6.12431 -6.74348 0.00188148 -0.000187085 -6.1213e-06 3.42973e-06 1.03441 0
11887 1 6.30452 -6.57406 0.00379052 0.00025871 -7.90502e-06 4.94648e-06 1.03342 0
11891 1 6.43951 -6.61038 0.00326212 0.000185585 -6.15298e-06 4.51094e-06 1.03344 0
11323 1 6.28314 -6.76391 0.0015956 -0.000314696 -5.4508e-06 3.32916e-06 1.03467 0
10507 1 6.45953 -6.78946 0.00138691 -0.000430587 -4.32208e-06 2.94215e-06 1.03495 0
11547 1 6.60928 -6.64561 0.00274391 0.000105333 -4.21734e-06 3.87931e-06 1.03348 0
11172 1 6.76838 -6.57979 0.00350043 0.000164611 -2.76994e-06 4.19159e-06 1.03327 0
10850 1 6.91003 -6.60814 0.00311287 0.000113243 -1.36188e-06 3.55752e-06 1.03327 0
10519 1 6.67549 -6.77993 0.00142136 -0.000384464 -3.06127e-06 2.59953e-06 1.03473 0
10189 1 6.85841 -6.78117 0.00139309 -0.000408678 -2.16955e-06 2.30938e-06 1.03468 0
11556 1 7.06179 -6.59337 0.00324498 0.000100784 1.03707e-07 3.33387e-06 1.03319 0
10857 1 7.21275 -6.59366 0.00320647 8.19556e-05 1.39461e-06 3.00202e-06 1.03313 0
3109 1 7.04441 -6.76374 0.0015207 -0.000344758 -1.1472e-06 2.06844e-06 1.0344 0
12788 1 5.6695 -0.0527568 0.0141103 -0.000346175 -3.26716e-05 -2.4656e-05 1.03317 0
3113 1 7.21995 -6.77561 0.00141064 -0.000414861 -5.35179e-07 1.75523e-06 1.03448 0
13660 1 2.0674 -6.35963 0.02 0 9.90601e-05 7.03891e-05 1 2
13661 1 2.0987 -6.17071 0.02 0 7.57937e-06 8.12023e-06 1 2
13662 1 2.26276 -6.37801 0.02 0 0.000144092 0.000180353 1 2
13663 1 2.29165 -6.17475 0.02 0 7.18085e-06 1.44203e-05 1 2
13664 1 2.45762 -6.37882 0.02 0 9.81538e-05 0.000145788 1 2
13666 1 2.48304 -6.18522 0.02 0 6.18836e-06 1.50094e-05 1 2
13665 1 2.65026 -6.37692 0.02 0 9.11248e-05 0.000135964 1 2
13667 1 2.67755 -6.18093 0.02 0 4.89376e-06 1.19057e-05 1 2
13668 1 2.83793 -6.37185 0.02 0 8.82507e-05 0.000121415 1 2
13670 1 2.87065 -6.16748 0.02 0 3.59904e-06 8.3032e-06 1 2
13669 1 3.02567 -6.37314 0.02 0 9.59418e-05 0.000125117 1 2
13671 1 3.06488 -6.181 0.02 0 5.00644e-06 1.06217e-05 1 2
13672 1 3.21943 -6.36836 0.02 0 8.82977e-05 0.000114523 1 2
13674 1 3.26005 -6.17118 0.02 0 4.18285e-06 9.1854e-06 1 2
13673 1 3.415 -6.35117 0.02 0 7.12473e-05 0.000107208 1 2
13675 1 3.45311 -6.15293 0.02 0 -1.66167e-05 8.42128e-06 1 2
13676 1 3.60991 -6.36594 0.02 0 -0.000637432 0.000116827 1 2
13678 1 3.64279 -6.16931 0.02 0 -0.000837547 9.84896e-05 1 2
13677 1 3.81282 -6.38958 0.02 0 -0.00378596 0.000190454 1 2
13679 1 3.83301 -6.20457 0.02 0 -0.00370051 0.00026698 1 2
13296 1 3.99952 -6.35781 0.02 0 -0.00446688 0.000455014 1.0216 2
13295 1 3.99961 -6.15802 0.02 0 -0.00434655 0.000386263 1.0207 2
13291 1 4.01619 -6.36008 0.0117201 0.000580489 -0.000309001 5.59053e-05 1.02878 0
13293 1 4.15732 -6.14025 0.0117079 0.00168007 -0.00022925 0.000159902 1.03998 0
13278 1 4.34759 -6.43997 0.0111095 0.002637 6.76145e-05 2.42788e-05 1.04074 0
13294 1 4.00032 -6.22277 0.0184108 0.000121146 -0.00635675 0.000484585 1.02553 0
13292 1 4.22645 -6.33024 0.0107203 0.00231345 -9.25397e-06 3.28915e-05 1.0426 0
13297 1 4.45319 -6.15684 0.0136575 0.00329651 5.29284e-05 5.18963e-06 1.03693 0
13299 1 4.29553 -6.16989 0.0119873 0.00273616 5.77309e-06 4.06946e-05 1.04098 0
13283 1 4.56431 -6.33468 0.0126029 0.00260854 4.79505e-05 -3.09835e-06 1.03559 0
13298 1 4.4122 -6.3057 0.0128174 0.00291544 5.76119e-05 5.89372e-06 1.03845 0
13300 1 4.52973 -6.02467 0.0139687 0.00363565 5.04707e-05 1.61168e-05 1.03532 0
13282 1 4.66727 -6.44193 0.0108819 0.00194223 4.13883e-05 -8.72703e-06 1.03484 0
13301 1 4.61607 -6.17081 0.0133415 0.0032137 5.12774e-05 2.18226e-06 1.03509 0
13302 1 4.74646 -6.22092 0.0123739 0.0028223 4.47224e-05 -2.70233e-06 1.03488 0
13287 1 4.80359 -6.36909 0.0107558 0.00207856 4.03147e-05 -9.66094e-06 1.0348 0
13286 1 4.91773 -6.25586 0.011076 0.0023614 3.7682e-05 -5.0363e-06 1.03493 0
13305 1 4.86247 -6.09703 0.0123908 0.00309681 3.81314e-05 3.73178e-06 1.03489 0
13288 1 4.98358 -6.43435 0.00879102 0.00149745 3.36419e-05 -1.02452e-05 1.03465 0
12954 1 5.02374 -6.1002 0.0116196 0.00275213 3.08771e-05 5.5749e-07 1.03486 0
12935 1 5.17991 -6.18181 0.0104192 0.00213079 2.19353e-05 -2.30793e-06 1.03464 0
13309 1 5.06213 -6.29136 0.00996981 0.00193613 3.04952e-05 -6.06112e-06 1.0348 0
13290 1 5.19793 -6.36583 0.00854601 0.00143194 2.11506e-05 -5.66829e-06 1.03445 0
13311 1 5.29756 -6.06178 0.0108901 0.00230835 1.30194e-05 4.45927e-07 1.03438 0
12938 1 5.33876 -6.23896 0.00933124 0.0016492 1.11828e-05 -1.58785e-06 1.03433 0
12937 1 5.36466 -6.39743 0.0075366 0.0011205 9.99322e-06 -2.9872e-06 1.03408 0
12939 1 5.49085 -6.17079 0.00946825 0.00162152 2.51712e-06 8.40073e-07 1.03415 0
12942 1 5.55908 -6.29364 0.00810272 0.00118873 -7.97373e-07 9.50261e-07 1.03398 0
12945 1 5.5109 -6.44616 0.00650049 0.00085053 1.69321e-06 -7.61622e-07 1.03378 0
12943 1 5.64542 -6.07087 0.00988083 0.00165991 -3.40483e-06 2.64225e-06 1.03402 0
12947 1 5.72517 -6.19483 0.00864785 0.00123228 -6.412e-06 3.27909e-06 1.03396 0
12950 1 5.70257 -6.36624 0.00697909 0.000875606 -6.05888e-06 2.53219e-06 1.03378 0
12946 1 5.90598 -6.13277 0.00882984 0.00115613 -9.41792e-06 4.99245e-06 1.0339 0
12948 1 5.86703 -6.28261 0.00752003 0.000893169 -9.56307e-06 4.55444e-06 1.03384 0
12952 1 6.05341 -6.23323 0.00768446 0.000815799 -1.0611e-05 5.94309e-06 1.03381 0
12605 1 5.91745 -6.41574 0.0060376 0.000624874 -1.00357e-05 4.5514e-06 1.03362 0
12132 1 6.0526 -6.45702 0.00539101 0.00049798 -1.04589e-05 5.22604e-06 1.03352 0
12603 1 6.23358 -6.20441 0.00770172 0.000710706 -9.58197e-06 6.67017e-06 1.03377 0
12608 1 6.1691 -6.35532 0.00633752 0.00055614 -1.03507e-05 6.09166e-06 1.03363 0
12606 1 6.38482 -6.11091 0.00833094 0.000722275 -7.54608e-06 7.05481e-06 1.03375 0
12611 1 6.41245 -6.26101 0.00698636 0.000516757 -7.56664e-06 6.76733e-06 1.03367 0
12616 1 6.311 -6.40871 0.00564177 0.000426268 -8.94965e-06 6.14154e-06 1.03352 0
12613 1 6.58228 -6.19899 0.00738156 0.000476343 -4.82181e-06 6.80704e-06 1.03366 0
12135 1 6.47597 -6.40706 0.00551961 0.00035694 -6.75793e-06 6.08276e-06 1.03347 0
11894 1 6.59182 -6.50237 0.00444718 0.000259687 -5.06184e-06 5.33522e-06 1.03333 0
12136 1 6.65008 -6.33149 0.00612339 0.000336481 -4.04758e-06 6.18178e-06 1.03351 0
12615 1 6.76456 -6.18045 0.00739014 0.000388514 -1.80408e-06 6.44535e-06 1.0336 0
12133 1 6.94693 -6.08942 0.0080149 0.000358109 1.2147e-06 6.07881e-06 1.03355 0
12291 1 6.77162 -6.41315 0.00526157 0.000253419 -2.4337e-06 5.42095e-06 1.03336 0
12287 1 6.89648 -6.25593 0.00664259 0.000273898 -1.98124e-09 5.7599e-06 1.0335 0
12296 1 6.92683 -6.418 0.00513335 0.000203759 -3.25435e-07 4.91743e-06 1.03329 0
12138 1 7.0583 -6.23052 0.00677116 0.000216976 2.39729e-06 5.2272e-06 1.03345 0
11895 1 7.07571 -6.42234 0.00502349 0.000163991 1.5115e-06 4.38116e-06 1.03322 0
11880 1 7.21159 -6.26134 0.0064307 0.000149538 4.2098e-06 4.49988e-06 1.03336 0
12290 1 7.32955 -6.13084 0.00747591 0.000144193 6.106e-06 4.23578e-06 1.03337 0
12787 1 5.6548 -0.209912 0.0140829 -0.000345465 -3.36188e-05 -2.32476e-05 1.03305 0
11890 1 7.23878 -6.42431 0.00494554 0.000124676 3.34446e-06 3.83792e-06 1.03314 0
12790 1 5.49983 -0.0223045 0.0139602 -0.000430588 -3.5337e-05 -2.58626e-05 1.03303 0
13680 1 2.0898 -5.9796 0.02 0 5.67122e-08 7.29916e-08 1 2
13681 1 2.07906 -5.78431 0.02 0 7.47876e-12 1.14784e-11 1 2
13682 1 2.28972 -5.97299 0.02 0 1.63932e-08 5.07045e-08 1 2
13683 1 2.27604 -5.77559 0.02 0 7.80784e-12 2.57792e-11 1 2
13684 1 2.48614 -5.98699 0.02 0 1.84277e-08 8.68819e-08 1 2
13685 1 2.47113 -5.78504 0.02 0 1.00444e-11 4.20461e-11 1 2
13686 1 2.6659 -5.78886 0.02 0 1.24386e-11 5.30919e-11 1 2
13687 1 2.68244 -5.9853 0.02 0 1.71475e-08 7.6079e-08 1 2
13690 1 2.86109 -5.75899 0.02 0 1.28201e-12 8.76541e-12 1 2
13688 1 2.87354 -5.96034 0.02 0 6.01631e-09 2.27742e-08 1 2
13689 1 3.06435 -5.98631 0.02 0 1.8989e-08 6.41736e-08 1 2
13691 1 3.05968 -5.78722 0.02 0 1.0725e-11 5.6563e-11 1 2
13692 1 3.25822 -5.97154 0.02 0 9.32358e-09 3.22089e-08 1 2
13694 1 3.25888 -5.77485 0.02 0 4.04319e-12 2.56436e-11 1 2
13693 1 3.45282 -5.95431 0.02 0 -1.26897e-05 -1.26793e-07 1 2
13695 1 3.45855 -5.75702 0.02 0 -2.09067e-05 -6.7045e-07 1 2
13696 1 3.64644 -5.96396 0.02 0 -0.000710008 7.79625e-07 1 2
13698 1 3.66023 -5.76803 0.02 0 -0.000938554 -5.60009e-05 1 2
13697 1 3.83367 -6.00481 0.02 0 -0.00350096 2.31174e-05 1 2
13317 1 3.99945 -5.97477 0.02 0 -0.00422555 0.000203174 1.018 2
13316 1 4 -5.79451 0.0184266 0.000129008 -0.00629378 0.000516031 1.02549 0
13699 1 3.85994 -5.79967 0.02 0 -0.00396749 -2.69212e-05 1 2
13313 1 4.13127 -5.89462 0.0118844 0.00122654 -0.000102639 -0.00023043 1.03802 0
13315 1 4.16642 -5.74525 0.0121064 0.00198739 0.000265795 -1.53601e-07 1.03888 0
13314 1 4.16104 -6.01361 0.0117014 0.00153928 -0.000329703 4.36814e-05 1.03945 0
13318 1 4.31075 -5.68548 0.0125079 0.00347933 0.00010272 4.42842e-05 1.03758 0
13319 1 4.3475 -6.00351 0.0131029 0.00318009 1.81165e-05 2.35803e-05 1.03854 0
13320 1 4.46413 -5.85758 0.013945 0.00375463 4.50415e-05 2.9124e-05 1.03546 0
13321 1 4.30431 -5.84873 0.0128034 0.00302665 6.3245e-05 -2.82525e-06 1.03869 0
13322 1 4.49758 -5.70234 0.0136664 0.00395301 2.91979e-05 3.2824e-05 1.03446 0
13303 1 4.73346 -6.01565 0.0133123 0.0035805 4.08744e-05 1.21473e-05 1.03474 0
13307 1 4.62577 -5.90668 0.0138379 0.00389717 3.88289e-05 2.21065e-05 1.03457 0
13323 1 4.66518 -5.76356 0.0136655 0.00406586 2.7012e-05 2.67979e-05 1.03427 0
13324 1 4.80993 -5.83655 0.0132997 0.00386208 2.865e-05 1.84177e-05 1.0346 0
13325 1 4.65451 -5.61209 0.0134432 0.00407549 1.61301e-05 2.8805e-05 1.03392 0
13326 1 4.82389 -5.65091 0.0133037 0.00400275 1.73563e-05 2.24993e-05 1.03438 0
13304 1 4.92394 -5.94428 0.0127054 0.00344144 3.04799e-05 9.40006e-06 1.03479 0
13327 1 4.95852 -5.74141 0.0130327 0.00374993 2.02374e-05 1.45706e-05 1.03459 0
13306 1 5.14527 -5.99979 0.0117261 0.00282281 2.16871e-05 2.36981e-06 1.0346 0
13308 1 5.06196 -5.86468 0.0125307 0.00334276 2.20646e-05 7.66937e-06 1.03463 0
13328 1 5.04733 -5.60887 0.0130878 0.0037034 1.22203e-05 1.3547e-05 1.0344 0
13312 1 5.16794 -5.73785 0.0127015 0.00334461 1.38097e-05 7.43168e-06 1.03438 0
13331 1 5.21621 -5.58083 0.013033 0.00342174 7.69473e-06 8.18675e-06 1.03419 0
13310 1 5.25705 -5.87538 0.0120291 0.00290186 1.30168e-05 3.57709e-06 1.03434 0
12956 1 5.40669 -5.86054 0.0117675 0.00262499 6.03453e-06 2.61252e-06 1.03414 0
12955 1 5.34934 -5.69664 0.0125624 0.00304096 6.34023e-06 4.52156e-06 1.03412 0
12958 1 5.44505 -6.02683 0.0107071 0.00212706 4.78539e-06 1.42351e-06 1.03417 0
12957 1 5.56789 -5.91855 0.0110994 0.00218758 -6.45019e-08 2.32945e-06 1.03402 0
12959 1 5.52697 -5.7478 0.0120754 0.00261481 1.28966e-06 2.88188e-06 1.03399 0
12977 1 5.57613 -5.59691 0.0126289 0.00275061 -2.68308e-07 3.39443e-06 1.03391 0
12961 1 5.71588 -5.89591 0.0109417 0.00197769 -4.37572e-06 3.32565e-06 1.03394 0
12960 1 5.69912 -5.72424 0.0119175 0.00234154 -3.14927e-06 3.3384e-06 1.03389 0
12963 1 5.83899 -5.62443 0.0122094 0.00225346 -5.01871e-06 4.14483e-06 1.03381 0
12974 1 6.04723 -6.05339 0.00924491 0.00115689 -9.72971e-06 5.87755e-06 1.03385 0
12951 1 6.20816 -6.04397 0.00908909 0.000995144 -9.14098e-06 6.67617e-06 1.0338 0
12962 1 5.83351 -6.00383 0.00998795 0.00154554 -7.51395e-06 4.27707e-06 1.03391 0
12965 1 5.85704 -5.81527 0.0111882 0.00190874 -6.54215e-06 4.29944e-06 1.03385 0
12966 1 5.99654 -5.89532 0.0104726 0.00154293 -8.45351e-06 5.38065e-06 1.03382 0
12964 1 5.97684 -5.69852 0.011676 0.0019167 -6.9179e-06 5.01767e-06 1.03378 0
12967 1 6.11994 -5.72059 0.0113845 0.00166298 -7.54267e-06 5.96518e-06 1.03374 0
12969 1 6.16331 -5.88555 0.0103068 0.00133486 -8.483e-06 6.38406e-06 1.03376 0
12970 1 6.25428 -5.648 0.0116466 0.00157206 -6.80672e-06 6.59618e-06 1.03368 0
12607 1 6.54474 -6.04799 0.00867233 0.000679715 -4.99631e-06 7.12931e-06 1.03369 0
12602 1 6.37242 -5.9577 0.0095419 0.000971658 -7.20178e-06 7.15457e-06 1.03372 0
12972 1 6.41319 -5.64727 0.0115037 0.00135838 -5.70845e-06 7.14424e-06 1.03364 0
12971 1 6.31002 -5.80943 0.0106324 0.00127291 -7.16904e-06 6.89862e-06 1.0337 0
12973 1 6.568 -5.65631 0.0113214 0.00115341 -4.12513e-06 7.38157e-06 1.03359 0
12620 1 6.60572 -5.89898 0.00972779 0.000824981 -3.83187e-06 7.32811e-06 1.03363 0
12619 1 6.483 -5.81558 0.0104134 0.00105973 -5.37156e-06 7.28477e-06 1.03365 0
12621 1 6.70736 -5.70834 0.0108994 0.000938871 -2.38819e-06 7.31881e-06 1.03356 0
12623 1 6.76101 -5.85492 0.00990389 0.000732792 -1.52471e-06 7.09971e-06 1.03357 0
12610 1 6.7322 -6.03107 0.00863809 0.000556607 -2.00634e-06 6.89691e-06 1.03363 0
12624 1 6.90598 -5.75474 0.0104661 0.000697784 3.51504e-07 6.83114e-06 1.03349 0
12614 1 6.89735 -5.93796 0.00921343 0.000533675 5.65867e-07 6.56769e-06 1.03354 0
12628 1 7.06371 -5.78347 0.0101822 0.000535642 2.44905e-06 6.20551e-06 1.03344 0
12631 1 7.06809 -5.94625 0.00904133 0.000403133 2.91071e-06 5.88124e-06 1.03348 0
12134 1 7.15245 -6.07807 0.00798232 0.000252516 4.05865e-06 5.21749e-06 1.03346 0
12618 1 7.22546 -5.85299 0.00962414 0.000364531 4.58414e-06 5.29696e-06 1.03339 0
12627 1 7.20387 -5.66977 0.010846 0.000490351 3.54195e-06 5.74557e-06 1.03337 0
13141 1 4.0002 -0.340036 0.0184864 -1.78664e-05 -0.00605427 -7.14655e-05 1.01999 0
12807 1 5.53338 -0.352536 0.0139652 -0.000354206 -3.60462e-05 -2.13768e-05 1.03286 0
12137 1 7.31684 -5.98242 0.0086405 0.000224171 5.97039e-06 4.56777e-06 1.03337 0
13131 1 4.58638 -0.1445 0.0126958 -0.000828789 -2.32929e-05 -1.92052e-05 1.03114 0
13701 1 2.00237 -5.39266 0.02 0 0 0 1 2
13700 1 2.02573 -5.58762 0.02 0 0 0 1 2
13702 1 2.20929 -5.39695 0.02 0 0 0 1 2
13703 1 2.23142 -5.58573 0.02 0 0 0 1 2
13706 1 2.41951 -5.39695 0.02 0 0 0 1 2
13704 1 2.43975 -5.58705 0.02 0 0 0 1 2
13705 1 2.64336 -5.59168 0.02 0 0 0 1 2