ITEM: TIMESTEP
2000
ITEM: NUMBER OF ATOMS
10524
ITEM: BOX BOUNDS ff ff pp
0.0000000000000000e+00 2.2000000000000000e+01
-1.0000000000000000e+01 1.0000000000000000e+01
-2.0000000000000000e-02 2.0000000000000000e-02
ITEM: ATOMS id type x y vx vy fx fy c_den c_phase
1501 2 2 -10 0 0 0 0 1 5
1535 2 2 -9.8 0 0 0 0 1 5
1569 2 2 -9.6 0 0 0 0 1 5
1502 2 2.2 -10 0 0 0 0 1 5
1503 2 2.4 -10 0 0 0 0 1 5
1536 2 2.2 -9.8 0 0 0 0 1 5
1537 2 2.4 -9.8 0 0 0 0 1 5
1570 2 2.2 -9.6 0 0 0 0 1 5
1571 2 2.4 -9.6 0 0 0 0 1 5
1504 2 2.6 -10 0 0 0 0 1 5
1505 2 2.8 -10 0 0 0 0 1 5
1538 2 2.6 -9.8 0 0 0 0 1 5
1539 2 2.8 -9.8 0 0 0 0 1 5
1572 2 2.6 -9.6 0 0 0 0 1 5
1573 2 2.8 -9.6 0 0 0 0 1 5
1506 2 3 -10 0 0 0 0 1 5
1540 2 3 -9.8 0 0 0 0 1 5
1574 2 3 -9.6 0 0 0 0 1 5
1507 2 3.2 -10 0 0 0 0 1 5
1541 2 3.2 -9.8 0 0 0 0 1 5
1575 2 3.2 -9.6 0 0 0 0 1 5
1508 2 3.4 -10 0 0 0 0 1 5
1542 2 3.4 -9.8 0 0 0 0 1 5
1576 2 3.4 -9.6 0 0 0 0 1 5
1509 2 3.6 -10 0 0 0 0 1 5
1543 2 3.6 -9.8 0 0 0 0 1 5
1577 2 3.6 -9.6 0 0 0 0 1 5
1510 2 3.8 -10 0 0 0 0 1 5
1544 2 3.8 -9.8 0 0 0 0 1 5
1578 2 3.8 -9.6 0 0 0 0 1 5
1511 2 4 -10 0 0 0 0 1 5
1512 2 4.2 -10 0 0 0 0 1 5
1545 2 4 -9.8 0 0 0 0 1 5
1546 2 4.2 -9.8 0 0 0 0 1 5
1579 2 4 -9.6 0 0 0 0 1 5
1580 2 4.2 -9.6 0 0 0 0 1 5
1513 2 4.4 -10 0 0 0 0 1 5
1514 2 4.6 -10 0 0 0 0 1 5
1547 2 4.4 -9.8 0 0 0 0 1 5
1548 2 4.6 -9.8 0 0 0 0 1 5
1581 2 4.4 -9.6 0 0 0 0 1 5
1582 2 4.6 -9.6 0 0 0 0 1 5
1515 2 4.8 -10 0 0 0 0 1 5
1516 2 5 -10 0 0 0 0 1 5
1549 2 4.8 -9.8 0 0 0 0 1 5
1550 2 5 -9.8 0 0 0 0 1 5
1583 2 4.8 -9.6 0 0 0 0 1 5
1584 2 5 -9.6 0 0 0 0 1 5
1517 2 5.2 -10 0 0 0 0 1 5
1518 2 5.4 -10 0 0 0 0 1 5
1551 2 5.2 -9.8 0 0 0 0 1 5
1552 2 5.4 -9.8 0 0 0 0 1 5
1585 2 5.2 -9.6 0 0 0 0 1 5
1586 2 5.4 -9.6 0 0 0 0 1 5
1519 2 5.6 -10 0 0 0 0 1 5
1553 2 5.6 -9.8 0 0 0 0 1 5
1587 2 5.6 -9.6 0 0 0 0 1 5
1520 2 5.8 -10 0 0 0 0 1 5
1554 2 5.8 -9.8 0 0 0 0 1 5
1588 2 5.8 -9.6 0 0 0 0 1 5
1521 2 6 -10 0 0 0 0 1 5
1555 2 6 -9.8 0 0 0 0 1 5
1589 2 6 -9.6 0 0 0 0 1 5
1522 2 6.2 -10 0 0 0 0 1 5
1523 2 6.4 -10 0 0 0 0 1 5
1556 2 6.2 -9.8 0 0 0 0 1 5
1557 2 6.4 -9.8 0 0 0 0 1 5
1590 2 6.2 -9.6 0 0 0 0 1 5
1591 2 6.4 -9.6 0 0 0 0 1 5
1524 2 6.6 -10 0 0 0 0 1 5
1525 2 6.8 -10 0 0 0 0 1 5
1558 2 6.6 -9.8 0 0 0 0 1 5
1559 2 6.8 -9.8 0 0 0 0 1 5
1592 2 6.6 -9.6 0 0 0 0 1 5
1593 2 6.8 -9.6 0 0 0 0 1 5
1526 2 7 -10 0 0 0 0 1 5
1527 2 7.2 -10 0 0 0 0 1 5
1560 2 7 -9.8 0 0 0 0 1 5
1561 2 7.2 -9.8 0 0 0 0 1 5
1594 2 7 -9.6 0 0 0 0 1 5
1595 2 7.2 -9.6 0 0 0 0 1 5
1603 2 2 -9.4 0 0 0 0 1 5
1637 2 2 -9.2 0 0 0 0 1 5
1604 2 2.2 -9.4 0 0 0 0 1 5
1605 2 2.4 -9.4 0 0 0 0 1 5
1638 2 2.2 -9.2 0 0 0 0 1 5
1639 2 2.4 -9.2 0 0 0 0 1 5
1606 2 2.6 -9.4 0 0 0 0 1 5
1607 2 2.8 -9.4 0 0 0 0 1 5
1640 2 2.6 -9.2 0 0 0 0 1 5
1641 2 2.8 -9.2 0 0 0 0 1 5
1608 2 3 -9.4 0 0 0 0 1 5
1642 2 3 -9.2 0 0 0 0 1 5
1609 2 3.2 -9.4 0 0 0 0 1 5
1643 2 3.2 -9.2 0 0 0 0 1 5
1610 2 3.4 -9.4 0 0 0 0 1 5
1644 2 3.4 -9.2 0 0 0 0 1 5
1611 2 3.6 -9.4 0 0 0 0 1 5
1645 2 3.6 -9.2 0 0 0 0 1 5
1612 2 3.8 -9.4 0 0 0 0 1 5
1646 2 3.8 -9.2 0 0 0 0 1 5
1613 2 4 -9.4 0 0 0 0 1 5
1614 2 4.2 -9.4 0 0 0 0 1 5
1647 2 4 -9.2 0 0 0 0 1 5
1648 2 4.2 -9.2 0 0 0 0 1 5
1615 2 4.4 -9.4 0 0 0 0 1 5
1616 2 4.6 -9.4 0 0 0 0 1 5
1649 2 4.4 -9.2 0 0 0 0 1 5
1650 2 4.6 -9.2 0 0 0 0 1 5
1617 2 4.8 -9.4 0 0 0 0 1 5
1618 2 5 -9.4 0 0 0 0 1 5
1651 2 4.8 -9.2 0 0 0 0 1 5
1652 2 5 -9.2 0 0 0 0 1 5
1619 2 5.2 -9.4 0 0 0 0 1 5
1620 2 5.4 -9.4 0 0 0 0 1 5
1653 2 5.2 -9.2 0 0 0 0 1 5
1654 2 5.4 -9.2 0 0 0 0 1 5
1621 2 5.6 -9.4 0 0 0 0 1 5
1655 2 5.6 -9.2 0 0 0 0 1 5
1622 2 5.8 -9.4 0 0 0 0 1 5
1656 2 5.8 -9.2 0 0 0 0 1 5
1623 2 6 -9.4 0 0 0 0 1 5
1657 2 6 -9.2 0 0 0 0 1 5
1624 2 6.2 -9.4 0 0 0 0 1 5
1625 2 6.4 -9.4 0 0 0 0 1 5
1658 2 6.2 -9.2 0 0 0 0 1 5
1659 2 6.4 -9.2 0 0 0 0 1 5
1626 2 6.6 -9.4 0 0 0 0 1 5
1627 2 6.8 -9.4 0 0 0 0 1 5
1660 2 6.6 -9.2 0 0 0 0 1 5
1661 2 6.8 -9.2 0 0 0 0 1 5
1628 2 7 -9.4 0 0 0 0 1 5
1629 2 7.2 -9.4 0 0 0 0 1 5
1662 2 7 -9.2 0 0 0 0 1 5
1663 2 7.2 -9.2 0 0 0 0 1 5
1671 2 2 -9 0 0 0 0 1 5
1705 2 2 -8.8 0 0 0 0 1 5
1672 2 2.2 -9 0 0 0 0 1 5
1673 2 2.4 -9 0 0 0 0 1 5
1706 2 2.2 -8.8 0 0 0 0 1 5
1707 2 2.4 -8.8 0 0 0 0 1 5
1674 2 2.6 -9 0 0 0 0 1 5
1675 2 2.8 -9 0 0 0 0 1 5
1708 2 2.6 -8.8 0 0 0 0 1 5
1709 2 2.8 -8.8 0 0 0 0 1 5
1676 2 3 -9 0 0 0 0 1 5
1710 2 3 -8.8 0 0 0 0 1 5
1677 2 3.2 -9 0 0 0 0 1 5
1711 2 3.2 -8.8 0 0 0 0 1 5
1678 2 3.4 -9 0 0 0 0 1 5
1712 2 3.4 -8.8 0 0 0 0 1 5
1679 2 3.6 -9 0 0 0 0 1 5
1713 2 3.6 -8.8 0 0 0 0 1 5
1680 2 3.8 -9 0 0 0 0 1 5
1714 2 3.8 -8.8 0 0 0 0 1 5
1681 2 4 -9 0 0 0 0 1 5
1682 2 4.2 -9 0 0 0 0 1 5
1715 2 4 -8.8 0 0 0 0 1 5
1716 2 4.2 -8.8 0 0 0 0 1 5
1683 2 4.4 -9 0 0 0 0 1 5
1684 2 4.6 -9 0 0 0 0 1 5
1717 2 4.4 -8.8 0 0 0 0 1 5
1718 2 4.6 -8.8 0 0 0 0 1 5
1685 2 4.8 -9 0 0 0 0 1 5
1686 2 5 -9 0 0 0 0 1 5
1719 2 4.8 -8.8 0 0 0 0 1 5
1720 2 5 -8.8 0 0 0 0 1 5
1687 2 5.2 -9 0 0 0 0 1 5
1688 2 5.4 -9 0 0 0 0 1 5
1721 2 5.2 -8.8 0 0 0 0 1 5
1722 2 5.4 -8.8 0 0 0 0 1 5
1689 2 5.6 -9 0 0 0 0 1 5
1723 2 5.6 -8.8 0 0 0 0 1 5
1690 2 5.8 -9 0 0 0 0 1 5
1724 2 5.8 -8.8 0 0 0 0 1 5
1691 2 6 -9 0 0 0 0 1 5
1725 2 6 -8.8 0 0 0 0 1 5
1692 2 6.2 -9 0 0 0 0 1 5
1693 2 6.4 -9 0 0 0 0 1 5
1726 2 6.2 -8.8 0 0 0 0 1 5
1727 2 6.4 -8.8 0 0 0 0 1 5
1694 2 6.6 -9 0 0 0 0 1 5
1695 2 6.8 -9 0 0 0 0 1 5
1728 2 6.6 -8.8 0 0 0 0 1 5
1729 2 6.8 -8.8 0 0 0 0 1 5
1696 2 7 -9 0 0 0 0 1 5
1697 2 7.2 -9 0 0 0 0 1 5
1730 2 7 -8.8 0 0 0 0 1 5
1731 2 7.2 -8.8 0 0 0 0 1 5
1739 2 2 -8.6 0 0 0 0 1 5
1773 2 2 -8.4 0 0 0 0 1 5
1740 2 2.2 -8.6 0 0 0 0 1 5
1741 2 2.4 -8.6 0 0 0 0 1 5
1774 2 2.2 -8.4 0 0 0 0 1 5
1775 2 2.4 -8.4 0 0 0 0 1 5
1742 2 2.6 -8.6 0 0 0 0 1 5
1743 2 2.8 -8.6 0 0 0 0 1 5
1776 2 2.6 -8.4 0 0 0 0 1 5
1777 2 2.8 -8.4 0 0 0 0 1 5
1744 2 3 -8.6 0 0 0 0 1 5
1778 2 3 -8.4 0 0 0 0 1 5
1745 2 3.2 -8.6 0 0 0 0 1 5
1779 2 3.2 -8.4 0 0 0 0 1 5
1746 2 3.4 -8.6 0 0 0 0 1 5
1780 2 3.4 -8.4 0 0 0 0 1 5
1747 2 3.6 -8.6 0 0 0 0 1 5
1781 2 3.6 -8.4 0 0 0 0 1 5
1748 2 3.8 -8.6 0 0 0 0 1 5
1782 2 3.8 -8.4 0 0 0 0 1 5
1749 2 4 -8.6 0 0 0 0 1 5
1750 2 4.2 -8.6 0 0 0 0 1 5
1783 2 4 -8.4 0 0 0 0 1 5
1784 2 4.2 -8.4 0 0 0 0 1 5
1751 2 4.4 -8.6 0 0 0 0 1 5
1752 2 4.6 -8.6 0 0 0 0 1 5
1785 2 4.4 -8.4 0 0 0 0 1 5
1786 2 4.6 -8.4 0 0 0 0 1 5
1753 2 4.8 -8.6 0 0 0 0 1 5
1754 2 5 -8.6 0 0 0 0 1 5
1787 2 4.8 -8.4 0 0 0 0 1 5
1788 2 5 -8.4 0 0 0 0 1 5
1755 2 5.2 -8.6 0 0 0 0 1 5
1756 2 5.4 -8.6 0 0 0 0 1 5
1789 2 5.2 -8.4 0 0 0 0 1 5
1790 2 5.4 -8.4 0 0 0 0 1 5
1757 2 5.6 -8.6 0 0 0 0 1 5
1791 2 5.6 -8.4 0 0 0 0 1 5
1758 2 5.8 -8.6 0 0 0 0 1 5
1792 2 5.8 -8.4 0 0 0 0 1 5
1759 2 6 -8.6 0 0 0 0 1 5
1793 2 6 -8.4 0 0 0 0 1 5
1760 2 6.2 -8.6 0 0 0 0 1 5
1761 2 6.4 -8.6 0 0 0 0 1 5
1794 2 6.2 -8.4 0 0 0 0 1 5
1795 2 6.4 -8.4 0 0 0 0 1 5
1762 2 6.6 -8.6 0 0 0 0 1 5
1763 2 6.8 -8.6 0 0 0 0 1 5
1796 2 6.6 -8.4 0 0 0 0 1 5
1797 2 6.8 -8.4 0 0 0 0 1 5
1764 2 7 -8.6 0 0 0 0 1 5
1765 2 7.2 -8.6 0 0 0 0 1 5
1798 2 7 -8.4 0 0 0 0 1 5
1799 2 7.2 -8.4 0 0 0 0 1 5
1807 2 2 -8.2 0 0 0 0 1 5
1841 2 2 -8 0 0 0 0 1 5
1808 2 2.2 -8.2 0 0 0 0 1 5
1809 2 2.4 -8.2 0 0 0 0 1 5
1842 2 2.2 -8 0 0 0 0 1 5
1843 2 2.4 -8 0 0 0 0 1 5
1810 2 2.6 -8.2 0 0 0 0 1 5
1811 2 2.8 -8.2 0 0 0 0 1 5
1844 2 2.6 -8 0 0 0 0 1 5
1845 2 2.8 -8 0 0 0 0 1 5
1812 2 3 -8.2 0 0 0 0 1 5
1846 2 3 -8 0 0 0 0 1 5
1813 2 3.2 -8.2 0 0 0 0 1 5
1847 2 3.2 -8 0 0 0 0 1 5
1814 2 3.4 -8.2 0 0 0 0 1 5
1848 2 3.4 -8 0 0 0 0 1 5
1815 2 3.6 -8.2 0 0 0 0 1 5
1849 2 3.6 -8 0 0 0 0 1 5
1816 2 3.8 -8.2 0 0 0 0 1 5
1850 2 3.8 -8 0 0 0 0 1 5
1817 2 4 -8.2 0 0 0 0 1 5
1818 2 4.2 -8.2 0 0 0 0 1 5
1851 2 4 -8 0 0 0 0 1 5
1852 2 4.2 -8 0 0 0 0 1 5
1819 2 4.4 -8.2 0 0 0 0 1 5
1820 2 4.6 -8.2 0 0 0 0 1 5
1853 2 4.4 -8 0 0 0 0 1 5
1854 2 4.6 -8 0 0 0 0 1 5
1821 2 4.8 -8.2 0 0 0 0 1 5
1822 2 5 -8.2 0 0 0 0 1 5
1855 2 4.8 -8 0 0 0 0 1 5
1856 2 5 -8 0 0 0 0 1 5
1823 2 5.2 -8.2 0 0 0 0 1 5
1824 2 5.4 -8.2 0 0 0 0 1 5
1857 2 5.2 -8 0 0 0 0 1 5
1858 2 5.4 -8 0 0 0 0 1 5
1825 2 5.6 -8.2 0 0 0 0 1 5
1859 2 5.6 -8 0 0 0 0 1 5
1826 2 5.8 -8.2 0 0 0 0 1 5
1860 2 5.8 -8 0 0 0 0 1 5
1827 2 6 -8.2 0 0 0 0 1 5
1861 2 6 -8 0 0 0 0 1 5
1828 2 6.2 -8.2 0 0 0 0 1 5
1829 2 6.4 -8.2 0 0 0 0 1 5
1862 2 6.2 -8 0 0 0 0 1 5
1863 2 6.4 -8 0 0 0 0 1 5
1830 2 6.6 -8.2 0 0 0 0 1 5
1831 2 6.8 -8.2 0 0 0 0 1 5
1864 2 6.6 -8 0 0 0 0 1 5
1865 2 6.8 -8 0 0 0 0 1 5
1832 2 7 -8.2 0 0 0 0 1 5
1833 2 7.2 -8.2 0 0 0 0 1 5
1866 2 7 -8 0 0 0 0 1 5
1867 2 7.2 -8 0 0 0 0 1 5
1875 2 2 -7.8 0 0 0 0 1 5
1909 2 2 -7.6 0 0 0 0 1 5
1943 2 2 -7.4 0 0 0 0 0.996396 5
1876 2 2.2 -7.8 0 0 0 0 1 5
1877 2 2.4 -7.8 0 0 0 0 1 5
1910 2 2.2 -7.6 0 0 0 0 1 5
1911 2 2.4 -7.6 0 0 0 0 1 5
1944 2 2.2 -7.4 0 0 0 0 1.00151 5
1945 2 2.4 -7.4 0 0 0 0 1.00107 5
1878 2 2.6 -7.8 0 0 0 0 1 5
1879 2 2.8 -7.8 0 0 0 0 1 5
1912 2 2.6 -7.6 0 0 0 0 1 5
1913 2 2.8 -7.6 0 0 0 0 1 5
1946 2 2.6 -7.4 0 0 0 0 0.999477 5
1947 2 2.8 -7.4 0 0 0 0 1.00063 5
1880 2 3 -7.8 0 0 0 0 1 5
1914 2 3 -7.6 0 0 0 0 1 5
1948 2 3 -7.4 0 0 0 0 0.996727 5
1881 2 3.2 -7.8 0 0 0 0 1 5
1915 2 3.2 -7.6 0 0 0 0 1 5
1949 2 3.2 -7.4 0 0 0 0 0.999577 5
1882 2 3.4 -7.8 0 0 0 0 1 5
1916 2 3.4 -7.6 0 0 0 0 1 5
1950 2 3.4 -7.4 0 0 0 0 1.00048 5
1883 2 3.6 -7.8 0 0 0 0 1 5
1917 2 3.6 -7.6 0 0 0 0 1 5
1951 2 3.6 -7.4 0 0 0 0 0.999641 5
1884 2 3.8 -7.8 0 0 0 0 1 5
1918 2 3.8 -7.6 0 0 0 0 1 5
1952 2 3.8 -7.4 0 0 0 0 1.00105 5
1885 2 4 -7.8 0 0 0 0 1 5
1886 2 4.2 -7.8 0 0 0 0 1 5
1919 2 4 -7.6 0 0 0 0 1 5
1920 2 4.2 -7.6 0 0 0 0 1 5
1953 2 4 -7.4 0 0 0 0 1.00207 5
1954 2 4.2 -7.4 0 0 0 0 1.01538 5
1887 2 4.4 -7.8 0 0 0 0 1 5
1888 2 4.6 -7.8 0 0 0 0 1 5
1921 2 4.4 -7.6 0 0 0 0 1 5
1922 2 4.6 -7.6 0 0 0 0 1 5
1955 2 4.4 -7.4 0 0 0 0 1.01373 5
1956 2 4.6 -7.4 0 0 0 0 1.01172 5
1889 2 4.8 -7.8 0 0 0 0 1 5
1890 2 5 -7.8 0 0 0 0 1 5
1923 2 4.8 -7.6 0 0 0 0 1 5
1924 2 5 -7.6 0 0 0 0 1 5
1957 2 4.8 -7.4 0 0 0 0 1.00839 5
1958 2 5 -7.4 0 0 0 0 1.00852 5
1891 2 5.2 -7.8 0 0 0 0 1 5
1892 2 5.4 -7.8 0 0 0 0 1 5
1925 2 5.2 -7.6 0 0 0 0 1 5
1926 2 5.4 -7.6 0 0 0 0 1 5
1959 2 5.2 -7.4 0 0 0 0 1.00839 5
1960 2 5.4 -7.4 0 0 0 0 1.00823 5
1893 2 5.6 -7.8 0 0 0 0 1 5
1927 2 5.6 -7.6 0 0 0 0 1 5
1961 2 5.6 -7.4 0 0 0 0 1.00829 5
1894 2 5.8 -7.8 0 0 0 0 1 5
1928 2 5.8 -7.6 0 0 0 0 1 5
1962 2 5.8 -7.4 0 0 0 0 1.00827 5
1895 2 6 -7.8 0 0 0 0 1 5
1929 2 6 -7.6 0 0 0 0 1 5
1963 2 6 -7.4 0 0 0 0 1.00824 5
1896 2 6.2 -7.8 0 0 0 0 1 5
1897 2 6.4 -7.8 0 0 0 0 1 5
1930 2 6.2 -7.6 0 0 0 0 1 5
1931 2 6.4 -7.6 0 0 0 0 1 5
1964 2 6.2 -7.4 0 0 0 0 1.00826 5
1965 2 6.4 -7.4 0 0 0 0 1.00823 5
1898 2 6.6 -7.8 0 0 0 0 1 5
1899 2 6.8 -7.8 0 0 0 0 1 5
1932 2 6.6 -7.6 0 0 0 0 1 5
1933 2 6.8 -7.6 0 0 0 0 1 5
1966 2 6.6 -7.4 0 0 0 0 1.00833 5
1967 2 6.8 -7.4 0 0 0 0 1.00842 5
1900 2 7 -7.8 0 0 0 0 1 5
1901 2 7.2 -7.8 0 0 0 0 1 5
1934 2 7 -7.6 0 0 0 0 1 5
1935 2 7.2 -7.6 0 0 0 0 1 5
1968 2 7 -7.4 0 0 0 0 1.0084 5
1969 2 7.2 -7.4 0 0 0 0 1.00845 5
1977 2 2 -7.2 0 0 0 0 0.999527 5
2011 2 2 -7 0 0 0 0 1.00055 5
1978 2 2.2 -7.2 0 0 0 0 1.00075 5
1979 2 2.4 -7.2 0 0 0 0 1.00005 5
2012 2 2.2 -7 0 0 0 0 1.00024 5
2013 2 2.4 -7 0 0 0 0 0.999974 5
1980 2 2.6 -7.2 0 0 0 0 0.999715 5
1981 2 2.8 -7.2 0 0 0 0 0.999374 5
2014 2 2.6 -7 0 0 0 0 0.999788 5
2015 2 2.8 -7 0 0 0 0 0.999573 5
1982 2 3 -7.2 0 0 0 0 0.999241 5
2016 2 3 -7 0 0 0 0 0.999649 5
1983 2 3.2 -7.2 0 0 0 0 1.00061 5
2017 2 3.2 -7 0 0 0 0 1.00028 5
1984 2 3.4 -7.2 0 0 0 0 1.00085 5
2018 2 3.4 -7 0 0 0 0 1.00044 5
1985 2 3.6 -7.2 0 0 0 0 1.00082 5
2019 2 3.6 -7 0 0 0 0 1.00064 5
1986 2 3.8 -7.2 0 0 0 0 1.00014 5
2020 2 3.8 -7 0 0 0 0 1.00083 5
1987 2 4 -7.2 0 0 0 0 1.00411 5
1988 2 4.2 -7.2 0 0 0 0 1.0126 5
2021 2 4 -7 0 0 0 0 1.00591 5
2022 2 4.2 -7 0 0 0 0 1.01299 5
1989 2 4.4 -7.2 0 0 0 0 1.01428 5
1990 2 4.6 -7.2 0 0 0 0 1.01117 5
2023 2 4.4 -7 0 0 0 0 1.01424 5
2024 2 4.6 -7 0 0 0 0 1.01118 5
1991 2 4.8 -7.2 0 0 0 0 1.00885 5
1992 2 5 -7.2 0 0 0 0 1.00862 5
2025 2 4.8 -7 0 0 0 0 1.00918 5
2026 2 5 -7 0 0 0 0 1.0089 5
1993 2 5.2 -7.2 0 0 0 0 1.0087 5
1994 2 5.4 -7.2 0 0 0 0 1.00853 5
2027 2 5.2 -7 0 0 0 0 1.00897 5
2028 2 5.4 -7 0 0 0 0 1.00879 5
1995 2 5.6 -7.2 0 0 0 0 1.00842 5
2029 2 5.6 -7 0 0 0 0 1.00863 5
1996 2 5.8 -7.2 0 0 0 0 1.00841 5
2030 2 5.8 -7 0 0 0 0 1.00858 5
1997 2 6 -7.2 0 0 0 0 1.00835 5
2031 2 6 -7 0 0 0 0 1.00851 5
1998 2 6.2 -7.2 0 0 0 0 1.00836 5
1999 2 6.4 -7.2 0 0 0 0 1.00834 5
2032 2 6.2 -7 0 0 0 0 1.00849 5
2033 2 6.4 -7 0 0 0 0 1.00847 5
2000 2 6.6 -7.2 0 0 0 0 1.00842 5
2001 2 6.8 -7.2 0 0 0 0 1.00849 5
2034 2 6.6 -7 0 0 0 0 1.00852 5
2035 2 6.8 -7 0 0 0 0 1.00857 5
2002 2 7 -7.2 0 0 0 0 1.00847 5
2003 2 7.2 -7.2 0 0 0 0 1.00851 5
2036 2 7 -7 0 0 0 0 1.00856 5
2037 2 7.2 -7 0 0 0 0 1.0086 5
10173 1 0.813714 -6.73915 0.02 0 0 0 1 2
10174 1 1.01892 -6.76661 0.02 0 0 0 1 2
10175 1 0.847509 -6.55076 0.02 0 0 0 1 2
10176 1 1.03519 -6.57535 0.02 0 0 0 1 2
10177 1 1.23461 -6.74572 0.02 0 -6.77782e-21 -8.38531e-21 1 2
10179 1 1.22812 -6.56407 0.02 0 -4.68514e-13 -1.63447e-13 1 2
10178 1 1.43309 -6.75043 0.02 0 -2.82158e-06 -1.56798e-06 1 2
10180 1 1.43566 -6.56481 0.02 0 -6.30247e-10 1.89802e-08 1 2
10181 1 1.62654 -6.74604 0.02 0 -0.000334767 -0.000138516 1 2
10183 1 1.64728 -6.56288 0.02 0 -3.84394e-06 3.48911e-05 1 2
10182 1 1.82585 -6.75916 0.02 0 -0.00259602 -0.000705004 1 2
10184 1 1.84774 -6.56544 0.02 0 -6.07025e-05 0.000222772 1 2
10185 1 2.02203 -6.73676 0.02 0 -0.00315953 -0.000635067 1 2
10187 1 2.04608 -6.55608 0.02 0 5.7512e-05 0.000485425 1 2
10186 1 2.22387 -6.74294 0.02 0 -0.00297586 -0.000523263 1 2
10188 1 2.23569 -6.55023 0.02 0 0.000182532 0.000433878 1 2
10189 1 2.41944 -6.75335 0.02 0 -0.00303374 -0.000442037 1 2
10191 1 2.42714 -6.55919 0.02 0 0.000193422 0.000438339 1 2
3101 1 2.81144 -6.75162 0.02 0 -0.00306654 -0.00045243 1 2
3135 1 2.82433 -6.54926 0.02 0 0.00019256 0.000418632 1 2
10190 1 2.6148 -6.74187 0.02 0 -0.00254747 -0.000458754 1 2
10192 1 2.63054 -6.56681 0.02 0 0.000113073 0.000476187 1 2
3102 1 3.00221 -6.72835 0.02 0 -0.00225632 -0.000403701 1 2
3103 1 3.19112 -6.74203 0.02 0 -0.00274372 -0.000510988 1 2
3136 1 3.01682 -6.54477 0.02 0 0.000176947 0.000428017 1 2
3137 1 3.21689 -6.5542 0.02 0 0.00018678 0.000494036 1 2
3104 1 3.38641 -6.74133 0.02 0 -0.00274314 -0.00056656 1 2
3105 1 3.5931 -6.75491 0.02 0 -0.00303115 -0.000522283 1 2
3138 1 3.42421 -6.56709 0.02 0 0.000149173 0.000581277 1 2
3139 1 3.62813 -6.5739 0.02 0 -0.000117249 0.000529091 1 2
3106 1 3.80731 -6.74948 0.02 0 -0.00531481 -0.000393477 1 2
3140 1 3.82288 -6.56093 0.02 0 -0.00131626 0.000347794 1 2
3107 1 4.00012 -6.76603 0.0107654 -0.000429675 -0.00132781 0.000114926 1.0072 0
3141 1 4.00011 -6.56887 0.0191897 0.000186047 -0.00324116 0.00074419 1.00724 0
3108 1 4.11263 -6.68642 0.0118647 0.00139875 -0.00062048 -0.000517688 1.01542 0
3142 1 4.15154 -6.52082 0.0155655 0.00296986 6.90889e-05 -0.000242139 1.01629 0
3109 1 4.23227 -6.75991 0.00812319 0.000396098 -0.000528745 -9.44452e-05 1.01885 0
3143 1 4.28866 -6.44643 0.0160548 0.00416079 4.56209e-05 -6.14286e-05 1.01504 0
3110 1 4.37078 -6.59052 0.0133855 0.00283778 -9.32252e-05 -7.4749e-05 1.01417 0
3111 1 4.41638 -6.7574 0.00779577 0.000875767 -9.09467e-05 1.02022e-05 1.0146 0
3112 1 4.56198 -6.65363 0.010694 0.00194513 -1.17108e-05 1.09777e-05 1.01074 0
3113 1 4.69648 -6.70936 0.00778275 0.00112312 -7.65987e-07 8.70325e-06 1.00989 0
3114 1 4.8464 -6.70885 0.0068083 0.000796919 -3.97854e-06 5.04556e-06 1.00958 0
3148 1 4.99205 -6.49294 0.0115378 0.00196494 -1.78312e-05 4.50888e-06 1.00975 0
3115 1 5.00626 -6.69221 0.00645548 0.000655676 -1.31374e-05 4.29851e-06 1.00939 0
3116 1 5.15992 -6.74677 0.00458392 0.000293902 -1.1883e-05 2.89427e-06 1.00959 0
3150 1 5.27462 -6.55298 0.00887681 0.00111726 -1.86128e-05 2.45169e-06 1.00923 0
3151 1 5.45504 -6.52181 0.00890024 0.00107233 -1.63876e-05 8.89903e-07 1.00905 0
3117 1 5.35025 -6.72058 0.00472351 0.000304833 -1.12274e-05 1.48553e-06 1.00921 0
3118 1 5.53269 -6.72449 0.00424528 0.000237665 -8.3043e-06 2.07063e-07 1.00896 0
3152 1 5.62905 -6.52855 0.00823241 0.000898807 -1.32839e-05 -2.24761e-07 1.00886 0
3153 1 5.80798 -6.54585 0.00742979 0.00072803 -1.09578e-05 -1.10597e-06 1.00871 0
3119 1 5.71729 -6.74301 0.0035958 0.000175104 -5.72854e-06 -7.18755e-07 1.0089 0
3120 1 5.91115 -6.72154 0.00372391 0.000186993 -5.55343e-06 -1.14325e-06 1.0087 0
3154 1 6.00547 -6.5368 0.00719349 0.000658518 -1.10266e-05 -1.24788e-06 1.00861 0
3155 1 6.19949 -6.554 0.00654891 0.000535566 -1.18711e-05 -9.67062e-07 1.00852 0
3121 1 6.09591 -6.74381 0.00313571 0.000128456 -5.39156e-06 -9.62124e-07 1.00872 0
3122 1 6.29052 -6.72717 0.00323844 0.000128863 -6.99439e-06 -5.35989e-07 1.00861 0
3123 1 6.48427 -6.74672 0.0028172 9.03758e-05 -7.81442e-06 1.02141e-07 1.00863 0
3156 1 6.41372 -6.55618 0.00624443 0.000467527 -1.41349e-05 -1.71203e-07 1.00846 0
3157 1 6.61262 -6.56547 0.00589612 0.000398078 -1.5991e-05 6.59632e-07 1.00846 0
3124 1 6.69016 -6.7508 0.00267504 8.20124e-05 -8.96111e-06 6.86375e-07 1.00868 0
3125 1 6.89481 -6.73568 0.00284668 7.67116e-05 -1.06606e-05 1.27357e-06 1.00868 0
3158 1 6.80876 -6.55942 0.00588318 0.000349433 -1.80212e-05 1.53019e-06 1.00849 0
3159 1 7.0074 -6.54333 0.00608623 0.000312132 -1.99349e-05 2.37415e-06 1.00851 0
3126 1 7.08808 -6.7278 0.00292119 5.47554e-05 -1.16734e-05 1.79814e-06 1.00864 0
3127 1 7.27881 -6.75628 0.00251192 2.66811e-05 -1.06408e-05 1.94617e-06 1.00875 0
3160 1 7.20235 -6.55043 0.00592093 0.000266184 -2.02028e-05 2.9044e-06 1.00852 0
4270 1 5.01548 -0.0556711 0.0194024 -4.98833e-05 -2.42196e-06 -6.2436e-06 1.00708 0
10193 1 0.867402 -6.35963 0.02 0 0 0 1 2
10194 1 0.898697 -6.17071 0.02 0 0 0 1 2
10195 1 1.06276 -6.37801 0.02 0 0 0 1 2
10196 1 1.09165 -6.17475 0.02 0 0 0 1 2
10197 1 1.25762 -6.37882 0.02 0 0 0 1 2
10198 1 1.45026 -6.37692 0.02 0 5.72606e-10 1.41092e-08 1 2
10199 1 1.28304 -6.18522 0.02 0 0 0 1 2
10200 1 1.47755 -6.18093 0.02 0 2.64434e-11 3.4429e-10 1 2
10201 1 1.63793 -6.37185 0.02 0 8.87036e-08 2.22629e-06 1 2
10203 1 1.67065 -6.16748 0.02 0 8.70821e-09 1.31537e-07 1 2
10202 1 1.82567 -6.37314 0.02 0 6.36581e-06 1.15076e-05 1 2
10204 1 1.86488 -6.181 0.02 0 1.83416e-07 1.56929e-06 1 2
10205 1 2.01943 -6.36836 0.02 0 4.48381e-05 7.3651e-05 1 2
10207 1 2.06005 -6.17118 0.02 0 1.698e-06 5.10111e-06 1 2
10206 1 2.215 -6.35117 0.02 0 7.52501e-05 0.000113792 1 2
10208 1 2.25311 -6.15293 0.02 0 3.0567e-06 7.36453e-06 1 2
10209 1 2.40991 -6.36594 0.02 0 9.52277e-05 0.000126983 1 2
10211 1 2.44279 -6.16931 0.02 0 4.60596e-06 9.74721e-06 1 2
3203 1 2.82798 -6.16727 0.02 0 4.14462e-06 8.43958e-06 1 2
3169 1 2.82579 -6.35803 0.02 0 8.10178e-05 0.000112934 1 2
10210 1 2.61282 -6.38958 0.02 0 0.000112473 0.000133884 1 2
10212 1 2.63301 -6.20457 0.02 0 8.25647e-06 1.44374e-05 1 2
3170 1 3.03468 -6.35816 0.02 0 7.06988e-05 0.000117043 1 2
3171 1 3.23776 -6.36705 0.02 0 8.36686e-05 0.00014247 1 2
3204 1 3.02668 -6.16827 0.02 0 4.16834e-06 8.61954e-06 1 2
3205 1 3.23092 -6.1805 0.02 0 5.20721e-06 1.04706e-05 1 2
3172 1 3.43644 -6.38798 0.02 0 9.73868e-05 0.000165691 1 2
3173 1 3.63881 -6.38895 0.02 0 -0.000129769 0.000148881 1 2
3206 1 3.44721 -6.20569 0.02 0 3.90329e-06 1.62697e-05 1 2
3207 1 3.66159 -6.20353 0.02 0 -0.000365326 2.79085e-05 1 2
3174 1 3.84166 -6.36843 0.02 0 -0.00133163 0.000143517 1 2
3175 1 4.00028 -6.38375 0.0194018 0.000209723 -0.00239273 0.000838891 1.00983 0
3208 1 3.86281 -6.17307 0.02 0 -0.00202849 0.000238773 1 2
3209 1 4.01418 -6.18023 0.0164498 0.00181154 4.73922e-05 -1.93155e-06 1.01095 0
3176 1 4.15901 -6.30807 0.0161935 0.0038002 0.000125416 2.12822e-05 1.01421 0
3210 1 4.17316 -6.10378 0.0163504 0.00385237 3.98814e-05 1.48258e-05 1.01247 0
3145 1 4.55673 -6.48144 0.0147473 0.0034296 -4.89794e-07 1.138e-05 1.01109 0
3177 1 4.31781 -6.23821 0.0171662 0.00494012 4.42062e-05 1.34713e-05 1.01243 0
3211 1 4.34051 -6.0408 0.0177237 0.00495979 2.23927e-05 1.06344e-05 1.01089 0
3144 1 4.45029 -6.36197 0.016719 0.00455742 6.52244e-06 3.95582e-06 1.01183 0
3178 1 4.48931 -6.16692 0.0177434 0.00519981 9.07662e-06 1.08742e-05 1.01057 0
3146 1 4.70434 -6.41962 0.0147747 0.00348312 1.33723e-07 1.30667e-05 1.01035 0
3147 1 4.83867 -6.49066 0.0125739 0.00246938 -8.3383e-06 8.04687e-06 1.00995 0
3179 1 4.64085 -6.21562 0.0171577 0.00480477 -5.79715e-07 9.92842e-06 1.01028 0
3180 1 4.79801 -6.23105 0.0164189 0.00423654 -1.0394e-05 5.8984e-06 1.01019 0
3214 1 4.82929 -6.02713 0.0177845 0.00491154 -1.01454e-05 2.18961e-06 1.00997 0
3181 1 4.95323 -6.25205 0.0155029 0.00356599 -1.82334e-05 3.30043e-06 1.01006 0
3215 1 4.99587 -6.03176 0.017386 0.00442903 -1.66348e-05 1.24036e-06 1.00986 0
3149 1 5.14986 -6.45908 0.0113766 0.00182573 -2.15746e-05 2.66054e-06 1.00963 0
3182 1 5.1128 -6.26971 0.0145759 0.00295501 -2.21703e-05 2.13298e-06 1.00981 0
3216 1 5.16352 -6.04417 0.0168537 0.00388615 -2.00082e-05 1.22938e-06 1.00962 0
3183 1 5.27705 -6.21753 0.014618 0.00279201 -2.23045e-05 1.26722e-06 1.00955 0
3217 1 5.33875 -6.00034 0.0167924 0.00357092 -2.02321e-05 1.8087e-06 1.00936 0
3184 1 5.3906 -6.34687 0.0123032 0.00192227 -2.04675e-05 1.12069e-06 1.00934 0
3218 1 5.47096 -6.12343 0.0151166 0.00276453 -2.02145e-05 1.3575e-06 1.00927 0
3185 1 5.57204 -6.29715 0.0124402 0.00184232 -1.8301e-05 5.28602e-07 1.00914 0
3219 1 5.65669 -6.09152 0.0149496 0.00249638 -1.85682e-05 1.68683e-06 1.00908 0
3186 1 5.74135 -6.33449 0.0113324 0.00146173 -1.59996e-05 -5.53184e-08 1.00897 0
3220 1 5.82993 -6.13278 0.0139718 0.00203646 -1.76725e-05 1.37931e-06 1.00895 0
3187 1 5.91826 -6.34602 0.01068 0.00123523 -1.51921e-05 -3.8464e-07 1.00884 0
3221 1 6.01456 -6.1453 0.0133717 0.00172172 -1.80658e-05 1.42254e-06 1.00883 0
3188 1 6.10405 -6.3419 0.0103369 0.00108256 -1.61718e-05 -1.36442e-07 1.00874 0
3222 1 6.20484 -6.14443 0.0130082 0.00148359 -1.98647e-05 1.82831e-06 1.00874 0
3223 1 6.3865 -6.17578 0.0122911 0.00121258 -2.19944e-05 2.05282e-06 1.00868 0
3189 1 6.28559 -6.36856 0.00959213 0.000882392 -1.75913e-05 2.09791e-07 1.00865 0
3190 1 6.47914 -6.36939 0.00931127 0.000764858 -2.01187e-05 1.03153e-06 1.00861 0
3224 1 6.58445 -6.18476 0.0119256 0.00101599 -2.46649e-05 2.76824e-06 1.00864 0
3191 1 6.67921 -6.37544 0.00901353 0.000647066 -2.24865e-05 1.92736e-06 1.00859 0
3225 1 6.78294 -6.18532 0.0117456 0.000852189 -2.70421e-05 3.57153e-06 1.00862 0
3192 1 6.88338 -6.36645 0.00901063 0.00055301 -2.46845e-05 2.88416e-06 1.00858 0
3226 1 6.98463 -6.17166 0.0118217 0.000715287 -2.89174e-05 4.37341e-06 1.00862 0
3193 1 7.08732 -6.35239 0.00913882 0.000467371 -2.62052e-05 3.73249e-06 1.00859 0
3227 1 7.18804 -6.16604 0.0118383 0.00057923 -2.98411e-05 4.98697e-06 1.00863 0
3194 1 7.28665 -6.36519 0.00890363 0.000375213 -2.62513e-05 4.21437e-06 1.00861 0
4267 1 4.47724 -0.0908958 0.0188045 -0.000153332 7.25639e-06 -5.00468e-06 1.007 0
10213 1 0.889805 -5.9796 0.02 0 0 0 1 2
10214 1 0.87906 -5.78431 0.02 0 0 0 1 2
10215 1 1.08972 -5.97299 0.02 0 0 0 1 2
10216 1 1.07604 -5.77559 0.02 0 0 0 1 2
10217 1 1.28614 -5.98699 0.02 0 0 0 1 2
10218 1 1.27113 -5.78504 0.02 0 0 0 1 2
10219 1 1.4659 -5.78886 0.02 0 0 0 1 2
10220 1 1.48244 -5.9853 0.02 0 0 0 1 2
10221 1 1.67354 -5.96034 0.02 0 1.30016e-11 2.92462e-10 1 2
10223 1 1.66109 -5.75899 0.02 0 0 0 1 2
10222 1 1.86435 -5.98631 0.02 0 7.03434e-10 1.06078e-08 1 2
10224 1 1.85968 -5.78722 0.02 0 3.4304e-13 5.61482e-12 1 2
10225 1 2.05822 -5.97154 0.02 0 3.25798e-09 2.08115e-08 1 2
10227 1 2.05888 -5.77485 0.02 0 2.06728e-12 2.56124e-11 1 2
10226 1 2.25282 -5.95431 0.02 0 5.5701e-09 1.99869e-08 1 2
10228 1 2.25855 -5.75702 0.02 0 9.49555e-13 6.01782e-12 1 2
10229 1 2.44644 -5.96396 0.02 0 7.82544e-09 3.03037e-08 1 2
10231 1 2.46023 -5.76803 0.02 0 2.31527e-12 1.79138e-11 1 2
3271 1 2.86848 -5.78448 0.02 0 3.57547e-12 2.48644e-11 1 2
3237 1 2.82715 -5.9733 0.02 0 1.48819e-08 3.79919e-08 1 2
10230 1 2.63367 -6.00481 0.02 0 4.38558e-08 1.26915e-07 1 2
10232 1 2.65994 -5.79967 0.02 0 1.89791e-11 1.29441e-10 1 2
3238 1 3.02866 -5.97613 0.02 0 1.5291e-08 5.30721e-08 1 2
3239 1 3.23268 -5.99115 0.02 0 3.03153e-08 1.0014e-07 1 2
3272 1 3.08089 -5.79188 0.02 0 6.87746e-12 3.83135e-11 1 2
3273 1 3.28848 -5.80453 0.02 0 1.4647e-11 9.14734e-11 1 2
3240 1 3.4342 -6.02123 0.02 0 -1.88003e-06 3.16924e-07 1 2
3241 1 3.64081 -6.01537 0.02 0 -0.000293605 2.5729e-05 1 2
3274 1 3.48893 -5.83465 0.02 0 -8.38652e-06 1.35358e-06 1 2
3275 1 3.69022 -5.817 0.02 0 -0.000432892 8.14834e-05 1 2
3242 1 3.84404 -5.97957 0.02 0 -0.00189097 0.000350079 1 2
3243 1 4.01507 -5.9831 0.0164689 0.0018867 2.02829e-05 1.01458e-05 1.01078 0
3276 1 3.89129 -5.78216 0.02 0 -0.00203296 0.000597349 1 2
3277 1 4.04419 -5.78499 0.0168503 0.00204252 1.56511e-05 8.90268e-06 1.01081 0
3244 1 4.18643 -5.91016 0.0168066 0.00367432 2.72829e-05 1.3654e-05 1.01171 0
3212 1 4.50798 -5.97363 0.0182739 0.00530754 9.46453e-06 7.15751e-06 1.01 0
3245 1 4.35741 -5.84022 0.0181104 0.00468771 1.75102e-05 7.82695e-06 1.0103 0
3278 1 4.20849 -5.70643 0.0171985 0.00346273 1.89973e-05 1.08153e-05 1.01125 0
3279 1 4.37951 -5.64163 0.0184008 0.00442703 1.2941e-05 9.14125e-06 1.00991 0
3246 1 4.53773 -5.78349 0.018671 0.00520804 8.11069e-06 6.19327e-06 1.00969 0
3280 1 4.55646 -5.59182 0.0189516 0.0050252 7.13604e-06 8.61101e-06 1.0094 0
3213 1 4.67365 -5.98038 0.0182432 0.00529532 -9.26417e-07 3.91245e-06 1.00994 0
3247 1 4.71486 -5.76768 0.0188562 0.00538013 2.52588e-07 4.26093e-06 1.00969 0
3281 1 4.73566 -5.56231 0.0192671 0.00531055 1.32463e-06 7.63482e-06 1.00943 0
3248 1 4.88002 -5.82287 0.0186781 0.00520916 -7.94865e-06 2.406e-06 1.00973 0
3282 1 4.9037 -5.61708 0.0193207 0.00532537 -5.00495e-06 5.45386e-06 1.00948 0
3249 1 5.05555 -5.82704 0.0185474 0.00483829 -1.37175e-05 2.17532e-06 1.00958 0
3283 1 5.08338 -5.62231 0.019401 0.00507529 -1.05663e-05 5.11092e-06 1.00934 0
3250 1 5.23055 -5.81734 0.0183985 0.00442066 -1.66754e-05 2.79115e-06 1.00935 0
3284 1 5.26813 -5.60889 0.0194393 0.00471433 -1.3529e-05 5.71362e-06 1.00916 0
3251 1 5.41445 -5.80846 0.0181805 0.00397257 -1.769e-05 3.64138e-06 1.00917 0
3285 1 5.45484 -5.61414 0.0193116 0.00427564 -1.51261e-05 6.28244e-06 1.00902 0
3252 1 5.56573 -5.91215 0.0170501 0.00330539 -1.84692e-05 3.02657e-06 1.00909 0
3286 1 5.62326 -5.70656 0.018576 0.0036985 -1.6519e-05 5.47424e-06 1.00896 0
3253 1 5.7577 -5.89773 0.0167757 0.00291145 -1.78932e-05 3.5737e-06 1.00895 0
3287 1 5.81948 -5.7058 0.0183175 0.00324007 -1.69383e-05 5.77588e-06 1.00883 0
3254 1 5.93734 -5.9408 0.0159756 0.00242897 -1.8339e-05 3.35706e-06 1.00884 0
3288 1 6.00817 -5.74409 0.0177477 0.00275295 -1.83082e-05 5.38663e-06 1.00874 0
3255 1 6.12532 -5.94835 0.0155514 0.00208203 -1.98178e-05 3.47508e-06 1.00874 0
3289 1 6.20515 -5.75381 0.0174123 0.0023521 -2.04554e-05 5.2789e-06 1.00866 0
3256 1 6.31586 -5.94292 0.0153242 0.00179995 -2.22089e-05 3.81354e-06 1.00867 0
3290 1 6.40467 -5.74203 0.0173182 0.00202214 -2.31557e-05 5.43741e-06 1.0086 0
3257 1 6.4916 -5.98914 0.0145664 0.00146813 -2.46307e-05 3.7802e-06 1.00863 0
3258 1 6.68177 -5.98712 0.0144142 0.0012466 -2.72104e-05 4.34354e-06 1.0086 0
3291 1 6.58296 -5.79519 0.0166452 0.00165834 -2.58368e-05 5.19948e-06 1.00857 0
3259 1 6.86998 -5.98585 0.0143115 0.00104315 -2.92553e-05 4.8845e-06 1.00859 0
3292 1 6.77775 -5.77866 0.0167052 0.00140277 -2.82258e-05 5.58409e-06 1.00855 0
3293 1 6.96811 -5.78612 0.0165688 0.00114449 -3.00063e-05 5.83638e-06 1.00855 0
3260 1 7.06497 -5.97489 0.0143776 0.000859661 -3.06893e-05 5.41746e-06 1.00859 0
3294 1 7.17002 -5.7801 0.0166214 0.000906561 -3.11154e-05 6.14036e-06 1.00855 0
3261 1 7.2617 -5.97542 0.0143498 0.000677198 -3.13121e-05 5.81675e-06 1.0086 0
4225 1 3.01183 -0.183256 0.02 0 0 0 1 2
4236 1 5.05241 -0.268512 0.0194352 -9.95104e-05 -5.12132e-06 -5.28191e-06 1.00706 0
4235 1 4.87097 -0.255732 0.019239 -0.00013103 -2.91426e-06 -6.63219e-06 1.00697 0
4238 1 5.42583 -0.305799 0.0198823 -8.17279e-05 -7.73642e-06 -2.65753e-06 1.00708 0
10234 1 0.802373 -5.39266 0.02 0 0 0 1 2
10233 1 0.825729 -5.58762 0.02 0 0 0 1 2
10235 1 1.00929 -5.39695 0.02 0 0 0 1 2
10236 1 1.03142 -5.58573 0.02 0 0 0 1 2
10237 1 1.23975 -5.58705 0.02 0 0 0 1 2
10239 1 1.21951 -5.39695 0.02 0 0 0 1 2
10238 1 1.44336 -5.59168 0.02 0 0 0 1 2
10240 1 1.43012 -5.39862 0.02 0 0 0 1 2
10241 1 1.64445 -5.5651 0.02 0 0 0 1 2
10243 1 1.64613 -5.38031 0.02 0 0 0 1 2
10242 1 1.84579 -5.58955 0.02 0 0 0 1 2
10244 1 1.87537 -5.40096 0.02 0 0 0 1 2
10245 1 2.05138 -5.5831 0.02 0 0 0 1 2
10247 1 2.10177 -5.40162 0.02 0 0 0 1 2
10249 1 1.92335 -5.2199 0.02 0 0 0 1 2
10246 1 2.2674 -5.56434 0.02 0 0 0 1 2
10248 1 2.32163 -5.37646 0.02 0 0 0 1 2
10250 1 2.13428 -5.21781 0.02 0 0 0 1 2
10251 1 2.47886 -5.57806 0.02 0 0 0 1 2
10253 1 2.52669 -5.39144 0.02 0 0 0 1 2
3339 1 2.9276 -5.4058 0.02 0 0 0 1 2
3305 1 2.89526 -5.5962 0.02 0 0 0 1 2
10252 1 2.68666 -5.60188 0.02 0 0 0 1 2
10254 1 2.72585 -5.40365 0.02 0 0 0 1 2
3306 1 3.10434 -5.6044 0.02 0 0 0 1 2
3340 1 3.13287 -5.41529 0.02 0 0 0 1 2
3374 1 3.14207 -5.22133 0.02 0 0 0 1 2
3307 1 3.30926 -5.60748 0.02 0 -3.2514e-11 -5.72969e-11 1 2
3341 1 3.33322 -5.40396 0.02 0 -1.98245e-14 -5.15215e-14 1 2
3308 1 3.50661 -5.63729 0.02 0 -6.95237e-06 8.96256e-07 1 2
3342 1 3.52498 -5.43333 0.02 0 -7.6763e-06 7.557e-07 1 2
3376 1 3.52919 -5.22014 0.02 0 -5.59923e-06 5.44575e-07 1 2
3309 1 3.70692 -5.61718 0.02 0 -0.000396997 6.19577e-05 1 2
3343 1 3.71918 -5.4152 0.02 0 -0.000375155 4.80633e-05 1 2
3310 1 3.9073 -5.58229 0.02 0 -0.0019147 0.000471906 1 2
3311 1 4.06233 -5.58185 0.017029 0.00189577 1.35528e-05 6.77427e-06 1.01039 0
3344 1 3.9152 -5.38278 0.02 0 -0.00180704 0.000392468 1 2
3345 1 4.0727 -5.38155 0.0171464 0.00170106 1.2574e-05 5.59826e-06 1.00994 0
3312 1 4.23049 -5.50211 0.0174363 0.00324891 1.40512e-05 1.08576e-05 1.01078 0
3313 1 4.40766 -5.44141 0.0186262 0.00421718 9.82281e-06 1.11356e-05 1.00946 0
3346 1 4.24226 -5.30434 0.0175611 0.00299915 1.19813e-05 1.02197e-05 1.01036 0
3347 1 4.42174 -5.24809 0.01874 0.00394823 7.86916e-06 1.22876e-05 1.0091 0
3314 1 4.59277 -5.39894 0.0191891 0.00485832 5.45901e-06 1.12764e-05 1.0091 0
3348 1 4.60725 -5.21152 0.0193182 0.00460287 4.2102e-06 1.36089e-05 1.00881 0
3315 1 4.7818 -5.36842 0.0195772 0.00517911 5.32919e-07 1.0937e-05 1.00917 0
3349 1 4.79692 -5.17594 0.0197551 0.00494919 3.23233e-08 1.4174e-05 1.00891 0