ITEM: TIMESTEP
94000
ITEM: NUMBER OF ATOMS
13274
ITEM: BOX BOUNDS ff ff pp
0.0000000000000000e+00 2.2000000000000000e+01
-1.0000000000000000e+01 1.0000000000000000e+01
-2.0000000000000000e-02 2.0000000000000000e-02
ITEM: ATOMS id type x y vx vy fx fy c_den c_phase
1501 2 2 -10 0 0 0 0 1 5
1535 2 2 -9.8 0 0 0 0 1 5
1569 2 2 -9.6 0 0 0 0 1 5
1502 2 2.2 -10 0 0 0 0 1 5
1503 2 2.4 -10 0 0 0 0 1 5
1536 2 2.2 -9.8 0 0 0 0 1 5
1537 2 2.4 -9.8 0 0 0 0 1 5
1570 2 2.2 -9.6 0 0 0 0 1 5
1571 2 2.4 -9.6 0 0 0 0 1 5
1504 2 2.6 -10 0 0 0 0 1 5
1505 2 2.8 -10 0 0 0 0 1 5
1538 2 2.6 -9.8 0 0 0 0 1 5
1539 2 2.8 -9.8 0 0 0 0 1 5
1572 2 2.6 -9.6 0 0 0 0 1 5
1573 2 2.8 -9.6 0 0 0 0 1 5
1506 2 3 -10 0 0 0 0 1 5
1540 2 3 -9.8 0 0 0 0 1 5
1574 2 3 -9.6 0 0 0 0 1 5
1507 2 3.2 -10 0 0 0 0 1 5
1541 2 3.2 -9.8 0 0 0 0 1 5
1575 2 3.2 -9.6 0 0 0 0 1 5
1508 2 3.4 -10 0 0 0 0 1 5
1542 2 3.4 -9.8 0 0 0 0 1 5
1576 2 3.4 -9.6 0 0 0 0 1 5
1509 2 3.6 -10 0 0 0 0 1 5
1543 2 3.6 -9.8 0 0 0 0 1 5
1577 2 3.6 -9.6 0 0 0 0 1 5
1510 2 3.8 -10 0 0 0 0 1 5
1544 2 3.8 -9.8 0 0 0 0 1 5
1578 2 3.8 -9.6 0 0 0 0 1 5
1511 2 4 -10 0 0 0 0 1 5
1512 2 4.2 -10 0 0 0 0 1 5
1545 2 4 -9.8 0 0 0 0 1 5
1546 2 4.2 -9.8 0 0 0 0 1 5
1579 2 4 -9.6 0 0 0 0 1 5
1580 2 4.2 -9.6 0 0 0 0 1 5
1513 2 4.4 -10 0 0 0 0 1 5
1514 2 4.6 -10 0 0 0 0 1 5
1547 2 4.4 -9.8 0 0 0 0 1 5
1548 2 4.6 -9.8 0 0 0 0 1 5
1581 2 4.4 -9.6 0 0 0 0 1 5
1582 2 4.6 -9.6 0 0 0 0 1 5
1515 2 4.8 -10 0 0 0 0 1 5
1516 2 5 -10 0 0 0 0 1 5
1549 2 4.8 -9.8 0 0 0 0 1 5
1550 2 5 -9.8 0 0 0 0 1 5
1583 2 4.8 -9.6 0 0 0 0 1 5
1584 2 5 -9.6 0 0 0 0 1 5
1517 2 5.2 -10 0 0 0 0 1 5
1518 2 5.4 -10 0 0 0 0 1 5
1551 2 5.2 -9.8 0 0 0 0 1 5
1552 2 5.4 -9.8 0 0 0 0 1 5
1585 2 5.2 -9.6 0 0 0 0 1 5
1586 2 5.4 -9.6 0 0 0 0 1 5
1519 2 5.6 -10 0 0 0 0 1 5
1553 2 5.6 -9.8 0 0 0 0 1 5
1587 2 5.6 -9.6 0 0 0 0 1 5
1520 2 5.8 -10 0 0 0 0 1 5
1554 2 5.8 -9.8 0 0 0 0 1 5
1588 2 5.8 -9.6 0 0 0 0 1 5
1521 2 6 -10 0 0 0 0 1 5
1555 2 6 -9.8 0 0 0 0 1 5
1589 2 6 -9.6 0 0 0 0 1 5
1522 2 6.2 -10 0 0 0 0 1 5
1523 2 6.4 -10 0 0 0 0 1 5
1556 2 6.2 -9.8 0 0 0 0 1 5
1557 2 6.4 -9.8 0 0 0 0 1 5
1590 2 6.2 -9.6 0 0 0 0 1 5
1591 2 6.4 -9.6 0 0 0 0 1 5
1524 2 6.6 -10 0 0 0 0 1 5
1525 2 6.8 -10 0 0 0 0 1 5
1558 2 6.6 -9.8 0 0 0 0 1 5
1559 2 6.8 -9.8 0 0 0 0 1 5
1592 2 6.6 -9.6 0 0 0 0 1 5
1593 2 6.8 -9.6 0 0 0 0 1 5
1526 2 7 -10 0 0 0 0 1 5
1527 2 7.2 -10 0 0 0 0 1 5
1560 2 7 -9.8 0 0 0 0 1 5
1561 2 7.2 -9.8 0 0 0 0 1 5
1594 2 7 -9.6 0 0 0 0 1 5
1595 2 7.2 -9.6 0 0 0 0 1 5
1603 2 2 -9.4 0 0 0 0 1 5
1637 2 2 -9.2 0 0 0 0 1 5
1604 2 2.2 -9.4 0 0 0 0 1 5
1605 2 2.4 -9.4 0 0 0 0 1 5
1638 2 2.2 -9.2 0 0 0 0 1 5
1639 2 2.4 -9.2 0 0 0 0 1 5
1606 2 2.6 -9.4 0 0 0 0 1 5
1607 2 2.8 -9.4 0 0 0 0 1 5
1640 2 2.6 -9.2 0 0 0 0 1 5
1641 2 2.8 -9.2 0 0 0 0 1 5
1608 2 3 -9.4 0 0 0 0 1 5
1642 2 3 -9.2 0 0 0 0 1 5
1609 2 3.2 -9.4 0 0 0 0 1 5
1643 2 3.2 -9.2 0 0 0 0 1 5
1610 2 3.4 -9.4 0 0 0 0 1 5
1644 2 3.4 -9.2 0 0 0 0 1 5
1611 2 3.6 -9.4 0 0 0 0 1 5
1645 2 3.6 -9.2 0 0 0 0 1 5
1612 2 3.8 -9.4 0 0 0 0 1 5
1646 2 3.8 -9.2 0 0 0 0 1 5
1613 2 4 -9.4 0 0 0 0 1 5
1614 2 4.2 -9.4 0 0 0 0 1 5
1647 2 4 -9.2 0 0 0 0 1 5
1648 2 4.2 -9.2 0 0 0 0 1 5
1615 2 4.4 -9.4 0 0 0 0 1 5
1616 2 4.6 -9.4 0 0 0 0 1 5
1649 2 4.4 -9.2 0 0 0 0 1 5
1650 2 4.6 -9.2 0 0 0 0 1 5
1617 2 4.8 -9.4 0 0 0 0 1 5
1618 2 5 -9.4 0 0 0 0 1 5
1651 2 4.8 -9.2 0 0 0 0 1 5
1652 2 5 -9.2 0 0 0 0 1 5
1619 2 5.2 -9.4 0 0 0 0 1 5
1620 2 5.4 -9.4 0 0 0 0 1 5
1653 2 5.2 -9.2 0 0 0 0 1 5
1654 2 5.4 -9.2 0 0 0 0 1 5
1621 2 5.6 -9.4 0 0 0 0 1 5
1655 2 5.6 -9.2 0 0 0 0 1 5
1622 2 5.8 -9.4 0 0 0 0 1 5
1656 2 5.8 -9.2 0 0 0 0 1 5
1623 2 6 -9.4 0 0 0 0 1 5
1657 2 6 -9.2 0 0 0 0 1 5
1624 2 6.2 -9.4 0 0 0 0 1 5
1625 2 6.4 -9.4 0 0 0 0 1 5
1658 2 6.2 -9.2 0 0 0 0 1 5
1659 2 6.4 -9.2 0 0 0 0 1 5
1626 2 6.6 -9.4 0 0 0 0 1 5
1627 2 6.8 -9.4 0 0 0 0 1 5
1660 2 6.6 -9.2 0 0 0 0 1 5
1661 2 6.8 -9.2 0 0 0 0 1 5
1628 2 7 -9.4 0 0 0 0 1 5
1629 2 7.2 -9.4 0 0 0 0 1 5
1662 2 7 -9.2 0 0 0 0 1 5
1663 2 7.2 -9.2 0 0 0 0 1 5
1671 2 2 -9 0 0 0 0 1 5
1705 2 2 -8.8 0 0 0 0 1 5
1672 2 2.2 -9 0 0 0 0 1 5
1673 2 2.4 -9 0 0 0 0 1 5
1706 2 2.2 -8.8 0 0 0 0 1 5
1707 2 2.4 -8.8 0 0 0 0 1 5
1674 2 2.6 -9 0 0 0 0 1 5
1675 2 2.8 -9 0 0 0 0 1 5
1708 2 2.6 -8.8 0 0 0 0 1 5
1709 2 2.8 -8.8 0 0 0 0 1 5
1676 2 3 -9 0 0 0 0 1 5
1710 2 3 -8.8 0 0 0 0 1 5
1677 2 3.2 -9 0 0 0 0 1 5
1711 2 3.2 -8.8 0 0 0 0 1 5
1678 2 3.4 -9 0 0 0 0 1 5
1712 2 3.4 -8.8 0 0 0 0 1 5
1679 2 3.6 -9 0 0 0 0 1 5
1713 2 3.6 -8.8 0 0 0 0 1 5
1680 2 3.8 -9 0 0 0 0 1 5
1714 2 3.8 -8.8 0 0 0 0 1 5
1681 2 4 -9 0 0 0 0 1 5
1682 2 4.2 -9 0 0 0 0 1 5
1715 2 4 -8.8 0 0 0 0 1 5
1716 2 4.2 -8.8 0 0 0 0 1 5
1683 2 4.4 -9 0 0 0 0 1 5
1684 2 4.6 -9 0 0 0 0 1 5
1717 2 4.4 -8.8 0 0 0 0 1 5
1718 2 4.6 -8.8 0 0 0 0 1 5
1685 2 4.8 -9 0 0 0 0 1 5
1686 2 5 -9 0 0 0 0 1 5
1719 2 4.8 -8.8 0 0 0 0 1 5
1720 2 5 -8.8 0 0 0 0 1 5
1687 2 5.2 -9 0 0 0 0 1 5
1688 2 5.4 -9 0 0 0 0 1 5
1721 2 5.2 -8.8 0 0 0 0 1 5
1722 2 5.4 -8.8 0 0 0 0 1 5
1689 2 5.6 -9 0 0 0 0 1 5
1723 2 5.6 -8.8 0 0 0 0 1 5
1690 2 5.8 -9 0 0 0 0 1 5
1724 2 5.8 -8.8 0 0 0 0 1 5
1691 2 6 -9 0 0 0 0 1 5
1725 2 6 -8.8 0 0 0 0 1 5
1692 2 6.2 -9 0 0 0 0 1 5
1693 2 6.4 -9 0 0 0 0 1 5
1726 2 6.2 -8.8 0 0 0 0 1 5
1727 2 6.4 -8.8 0 0 0 0 1 5
1694 2 6.6 -9 0 0 0 0 1 5
1695 2 6.8 -9 0 0 0 0 1 5
1728 2 6.6 -8.8 0 0 0 0 1 5
1729 2 6.8 -8.8 0 0 0 0 1 5
1696 2 7 -9 0 0 0 0 1 5
1697 2 7.2 -9 0 0 0 0 1 5
1730 2 7 -8.8 0 0 0 0 1 5
1731 2 7.2 -8.8 0 0 0 0 1 5
1739 2 2 -8.6 0 0 0 0 1 5
1773 2 2 -8.4 0 0 0 0 1 5
1740 2 2.2 -8.6 0 0 0 0 1 5
1741 2 2.4 -8.6 0 0 0 0 1 5
1774 2 2.2 -8.4 0 0 0 0 1 5
1775 2 2.4 -8.4 0 0 0 0 1 5
1742 2 2.6 -8.6 0 0 0 0 1 5
1743 2 2.8 -8.6 0 0 0 0 1 5
1776 2 2.6 -8.4 0 0 0 0 1 5
1777 2 2.8 -8.4 0 0 0 0 1 5
1744 2 3 -8.6 0 0 0 0 1 5
1778 2 3 -8.4 0 0 0 0 1 5
1745 2 3.2 -8.6 0 0 0 0 1 5
1779 2 3.2 -8.4 0 0 0 0 1 5
1746 2 3.4 -8.6 0 0 0 0 1 5
1780 2 3.4 -8.4 0 0 0 0 1 5
1747 2 3.6 -8.6 0 0 0 0 1 5
1781 2 3.6 -8.4 0 0 0 0 1 5
1748 2 3.8 -8.6 0 0 0 0 1 5
1782 2 3.8 -8.4 0 0 0 0 1 5
1749 2 4 -8.6 0 0 0 0 1 5
1750 2 4.2 -8.6 0 0 0 0 1 5
1783 2 4 -8.4 0 0 0 0 1 5
1784 2 4.2 -8.4 0 0 0 0 1 5
1751 2 4.4 -8.6 0 0 0 0 1 5
1752 2 4.6 -8.6 0 0 0 0 1 5
1785 2 4.4 -8.4 0 0 0 0 1 5
1786 2 4.6 -8.4 0 0 0 0 1 5
1753 2 4.8 -8.6 0 0 0 0 1 5
1754 2 5 -8.6 0 0 0 0 1 5
1787 2 4.8 -8.4 0 0 0 0 1 5
1788 2 5 -8.4 0 0 0 0 1 5
1755 2 5.2 -8.6 0 0 0 0 1 5
1756 2 5.4 -8.6 0 0 0 0 1 5
1789 2 5.2 -8.4 0 0 0 0 1 5
1790 2 5.4 -8.4 0 0 0 0 1 5
1757 2 5.6 -8.6 0 0 0 0 1 5
1791 2 5.6 -8.4 0 0 0 0 1 5
1758 2 5.8 -8.6 0 0 0 0 1 5
1792 2 5.8 -8.4 0 0 0 0 1 5
1759 2 6 -8.6 0 0 0 0 1 5
1793 2 6 -8.4 0 0 0 0 1 5
1760 2 6.2 -8.6 0 0 0 0 1 5
1761 2 6.4 -8.6 0 0 0 0 1 5
1794 2 6.2 -8.4 0 0 0 0 1 5
1795 2 6.4 -8.4 0 0 0 0 1 5
1762 2 6.6 -8.6 0 0 0 0 1 5
1763 2 6.8 -8.6 0 0 0 0 1 5
1796 2 6.6 -8.4 0 0 0 0 1 5
1797 2 6.8 -8.4 0 0 0 0 1 5
1764 2 7 -8.6 0 0 0 0 1 5
1765 2 7.2 -8.6 0 0 0 0 1 5
1798 2 7 -8.4 0 0 0 0 1 5
1799 2 7.2 -8.4 0 0 0 0 1 5
1807 2 2 -8.2 0 0 0 0 1 5
1841 2 2 -8 0 0 0 0 1 5
1808 2 2.2 -8.2 0 0 0 0 1 5
1809 2 2.4 -8.2 0 0 0 0 1 5
1842 2 2.2 -8 0 0 0 0 1 5
1843 2 2.4 -8 0 0 0 0 1 5
1810 2 2.6 -8.2 0 0 0 0 1 5
1811 2 2.8 -8.2 0 0 0 0 1 5
1844 2 2.6 -8 0 0 0 0 1 5
1845 2 2.8 -8 0 0 0 0 1 5
1812 2 3 -8.2 0 0 0 0 1 5
1846 2 3 -8 0 0 0 0 1 5
1813 2 3.2 -8.2 0 0 0 0 1 5
1847 2 3.2 -8 0 0 0 0 1 5
1814 2 3.4 -8.2 0 0 0 0 1 5
1848 2 3.4 -8 0 0 0 0 1 5
1815 2 3.6 -8.2 0 0 0 0 1 5
1849 2 3.6 -8 0 0 0 0 1 5
1816 2 3.8 -8.2 0 0 0 0 1 5
1850 2 3.8 -8 0 0 0 0 1 5
1817 2 4 -8.2 0 0 0 0 1 5
1818 2 4.2 -8.2 0 0 0 0 1 5
1851 2 4 -8 0 0 0 0 1 5
1852 2 4.2 -8 0 0 0 0 1 5
1819 2 4.4 -8.2 0 0 0 0 1 5
1820 2 4.6 -8.2 0 0 0 0 1 5
1853 2 4.4 -8 0 0 0 0 1 5
1854 2 4.6 -8 0 0 0 0 1 5
1821 2 4.8 -8.2 0 0 0 0 1 5
1822 2 5 -8.2 0 0 0 0 1 5
1855 2 4.8 -8 0 0 0 0 1 5
1856 2 5 -8 0 0 0 0 1 5
1823 2 5.2 -8.2 0 0 0 0 1 5
1824 2 5.4 -8.2 0 0 0 0 1 5
1857 2 5.2 -8 0 0 0 0 1 5
1858 2 5.4 -8 0 0 0 0 1 5
1825 2 5.6 -8.2 0 0 0 0 1 5
1859 2 5.6 -8 0 0 0 0 1 5
1826 2 5.8 -8.2 0 0 0 0 1 5
1860 2 5.8 -8 0 0 0 0 1 5
1827 2 6 -8.2 0 0 0 0 1 5
1861 2 6 -8 0 0 0 0 1 5
1828 2 6.2 -8.2 0 0 0 0 1 5
1829 2 6.4 -8.2 0 0 0 0 1 5
1862 2 6.2 -8 0 0 0 0 1 5
1863 2 6.4 -8 0 0 0 0 1 5
1830 2 6.6 -8.2 0 0 0 0 1 5
1831 2 6.8 -8.2 0 0 0 0 1 5
1864 2 6.6 -8 0 0 0 0 1 5
1865 2 6.8 -8 0 0 0 0 1 5
1832 2 7 -8.2 0 0 0 0 1 5
1833 2 7.2 -8.2 0 0 0 0 1 5
1866 2 7 -8 0 0 0 0 1 5
1867 2 7.2 -8 0 0 0 0 1 5
1875 2 2 -7.8 0 0 0 0 1 5
1909 2 2 -7.6 0 0 0 0 1 5
1943 2 2 -7.4 0 0 0 0 0.999511 5
1876 2 2.2 -7.8 0 0 0 0 1 5
1877 2 2.4 -7.8 0 0 0 0 1 5
1910 2 2.2 -7.6 0 0 0 0 1 5
1911 2 2.4 -7.6 0 0 0 0 1 5
1944 2 2.2 -7.4 0 0 0 0 0.999329 5
1945 2 2.4 -7.4 0 0 0 0 1.00245 5
1878 2 2.6 -7.8 0 0 0 0 1 5
1879 2 2.8 -7.8 0 0 0 0 1 5
1912 2 2.6 -7.6 0 0 0 0 1 5
1913 2 2.8 -7.6 0 0 0 0 1 5
1946 2 2.6 -7.4 0 0 0 0 0.999589 5
1947 2 2.8 -7.4 0 0 0 0 0.997337 5
1880 2 3 -7.8 0 0 0 0 1 5
1914 2 3 -7.6 0 0 0 0 1 5
1948 2 3 -7.4 0 0 0 0 1.00164 5
1881 2 3.2 -7.8 0 0 0 0 1 5
1915 2 3.2 -7.6 0 0 0 0 1 5
1949 2 3.2 -7.4 0 0 0 0 0.999831 5
1882 2 3.4 -7.8 0 0 0 0 1 5
1916 2 3.4 -7.6 0 0 0 0 1 5
1950 2 3.4 -7.4 0 0 0 0 1.00047 5
1883 2 3.6 -7.8 0 0 0 0 1 5
1917 2 3.6 -7.6 0 0 0 0 1 5
1951 2 3.6 -7.4 0 0 0 0 0.999892 5
1884 2 3.8 -7.8 0 0 0 0 1 5
1918 2 3.8 -7.6 0 0 0 0 1 5
1952 2 3.8 -7.4 0 0 0 0 1.03847 5
1885 2 4 -7.8 0 0 0 0 1 5
1886 2 4.2 -7.8 0 0 0 0 1 5
1919 2 4 -7.6 0 0 0 0 1 5
1920 2 4.2 -7.6 0 0 0 0 1 5
1953 2 4 -7.4 0 0 0 0 1.04258 5
1954 2 4.2 -7.4 0 0 0 0 1.04739 5
1887 2 4.4 -7.8 0 0 0 0 1 5
1888 2 4.6 -7.8 0 0 0 0 1 5
1921 2 4.4 -7.6 0 0 0 0 1 5
1922 2 4.6 -7.6 0 0 0 0 1 5
1955 2 4.4 -7.4 0 0 0 0 1.04536 5
1956 2 4.6 -7.4 0 0 0 0 1.04553 5
1889 2 4.8 -7.8 0 0 0 0 1 5
1890 2 5 -7.8 0 0 0 0 1 5
1923 2 4.8 -7.6 0 0 0 0 1 5
1924 2 5 -7.6 0 0 0 0 1 5
1957 2 4.8 -7.4 0 0 0 0 1.04539 5
1958 2 5 -7.4 0 0 0 0 1.04548 5
1891 2 5.2 -7.8 0 0 0 0 1 5
1892 2 5.4 -7.8 0 0 0 0 1 5
1925 2 5.2 -7.6 0 0 0 0 1 5
1926 2 5.4 -7.6 0 0 0 0 1 5
1959 2 5.2 -7.4 0 0 0 0 1.04547 5
1960 2 5.4 -7.4 0 0 0 0 1.04557 5
1893 2 5.6 -7.8 0 0 0 0 1 5
1927 2 5.6 -7.6 0 0 0 0 1 5
1961 2 5.6 -7.4 0 0 0 0 1.04538 5
1894 2 5.8 -7.8 0 0 0 0 1 5
1928 2 5.8 -7.6 0 0 0 0 1 5
1962 2 5.8 -7.4 0 0 0 0 1.04527 5
1895 2 6 -7.8 0 0 0 0 1 5
1929 2 6 -7.6 0 0 0 0 1 5
1963 2 6 -7.4 0 0 0 0 1.04514 5
1896 2 6.2 -7.8 0 0 0 0 1 5
1897 2 6.4 -7.8 0 0 0 0 1 5
1930 2 6.2 -7.6 0 0 0 0 1 5
1931 2 6.4 -7.6 0 0 0 0 1 5
1964 2 6.2 -7.4 0 0 0 0 1.04504 5
1965 2 6.4 -7.4 0 0 0 0 1.04528 5
1898 2 6.6 -7.8 0 0 0 0 1 5
1899 2 6.8 -7.8 0 0 0 0 1 5
1932 2 6.6 -7.6 0 0 0 0 1 5
1933 2 6.8 -7.6 0 0 0 0 1 5
1966 2 6.6 -7.4 0 0 0 0 1.04554 5
1967 2 6.8 -7.4 0 0 0 0 1.04543 5
1900 2 7 -7.8 0 0 0 0 1 5
1901 2 7.2 -7.8 0 0 0 0 1 5
1934 2 7 -7.6 0 0 0 0 1 5
1935 2 7.2 -7.6 0 0 0 0 1 5
1968 2 7 -7.4 0 0 0 0 1.04536 5
1969 2 7.2 -7.4 0 0 0 0 1.04558 5
1977 2 2 -7.2 0 0 0 0 1.00086 5
2011 2 2 -7 0 0 0 0 1.00134 5
1978 2 2.2 -7.2 0 0 0 0 0.999399 5
1979 2 2.4 -7.2 0 0 0 0 1.00127 5
2012 2 2.2 -7 0 0 0 0 0.99961 5
2013 2 2.4 -7 0 0 0 0 1.00035 5
1980 2 2.6 -7.2 0 0 0 0 0.999864 5
1981 2 2.8 -7.2 0 0 0 0 0.998643 5
2014 2 2.6 -7 0 0 0 0 0.999932 5
2015 2 2.8 -7 0 0 0 0 0.999452 5
1982 2 3 -7.2 0 0 0 0 1.0014 5
2016 2 3 -7 0 0 0 0 1.00062 5
1983 2 3.2 -7.2 0 0 0 0 1.00011 5
2017 2 3.2 -7 0 0 0 0 1.00025 5
1984 2 3.4 -7.2 0 0 0 0 1.00051 5
2018 2 3.4 -7 0 0 0 0 1.00075 5
1985 2 3.6 -7.2 0 0 0 0 1.00446 5
2019 2 3.6 -7 0 0 0 0 1.00455 5
1986 2 3.8 -7.2 0 0 0 0 1.02557 5
2020 2 3.8 -7 0 0 0 0 1.01969 5
1987 2 4 -7.2 0 0 0 0 1.03457 5
1988 2 4.2 -7.2 0 0 0 0 1.04048 5
2021 2 4 -7 0 0 0 0 1.02929 5
2022 2 4.2 -7 0 0 0 0 1.03886 5
1989 2 4.4 -7.2 0 0 0 0 1.04879 5
1990 2 4.6 -7.2 0 0 0 0 1.04744 5
2023 2 4.4 -7 0 0 0 0 1.05051 5
2024 2 4.6 -7 0 0 0 0 1.04931 5
1991 2 4.8 -7.2 0 0 0 0 1.04679 5
1992 2 5 -7.2 0 0 0 0 1.04682 5
2025 2 4.8 -7 0 0 0 0 1.04785 5
2026 2 5 -7 0 0 0 0 1.04777 5
1993 2 5.2 -7.2 0 0 0 0 1.04694 5
1994 2 5.4 -7.2 0 0 0 0 1.04688 5
2027 2 5.2 -7 0 0 0 0 1.04794 5
2028 2 5.4 -7 0 0 0 0 1.04784 5
1995 2 5.6 -7.2 0 0 0 0 1.04678 5
2029 2 5.6 -7 0 0 0 0 1.04774 5
1996 2 5.8 -7.2 0 0 0 0 1.04678 5
2030 2 5.8 -7 0 0 0 0 1.04775 5
1997 2 6 -7.2 0 0 0 0 1.04673 5
2031 2 6 -7 0 0 0 0 1.04772 5
1998 2 6.2 -7.2 0 0 0 0 1.04663 5
1999 2 6.4 -7.2 0 0 0 0 1.04657 5
2032 2 6.2 -7 0 0 0 0 1.04761 5
2033 2 6.4 -7 0 0 0 0 1.04745 5
2000 2 6.6 -7.2 0 0 0 0 1.04658 5
2001 2 6.8 -7.2 0 0 0 0 1.04662 5
2034 2 6.6 -7 0 0 0 0 1.04744 5
2035 2 6.8 -7 0 0 0 0 1.04754 5
2002 2 7 -7.2 0 0 0 0 1.04661 5
2003 2 7.2 -7.2 0 0 0 0 1.04661 5
2036 2 7 -7 0 0 0 0 1.04754 5
2037 2 7.2 -7 0 0 0 0 1.04749 5
16401 1 1.79102 -6.74338 0.02 0 -0.00490824 -0.00201777 1 2
16402 1 1.74849 -6.5613 0.02 0 -4.98651e-05 -1.53124e-05 1 2
16403 1 1.99236 -6.74376 0.02 0 -0.00287922 -0.000473971 1 2
16405 1 1.94494 -6.55905 0.02 0 0.000586859 0.000813946 1 2
16404 1 2.18777 -6.73868 0.02 0 -0.00279045 -0.000487309 1 2
16406 1 2.14944 -6.55789 0.02 0 0.000339442 0.000624818 1 2
16407 1 2.38341 -6.73962 0.02 0 -0.00282469 -0.000552638 1 2
16409 1 2.35378 -6.54776 0.02 0 0.000286399 0.000504895 1 2
16408 1 2.59313 -6.76082 0.02 0 -0.0031873 -0.000485323 1 2
16410 1 2.54911 -6.57768 0.02 0 0.000190902 0.000515127 1 2
16411 1 2.79388 -6.73736 0.02 0 -0.00248975 -0.000498613 1 2
16413 1 2.74552 -6.55109 0.02 0 0.000215312 0.000466525 1 2
16414 1 2.94615 -6.56038 0.02 0 0.00022529 0.000524192 1 2
16412 1 2.99327 -6.74024 0.02 0 -0.00284004 -0.00055913 1 2
16415 1 3.15327 -6.57021 0.02 0 0.000207469 0.000530105 1 2
16416 1 3.19717 -6.75869 0.02 0 -0.00318901 -0.000472837 1 2
16418 1 3.36121 -6.56389 0.02 0 0.000199928 0.000504142 1 2
16417 1 3.39733 -6.7389 0.02 0 -0.0026462 -0.000323259 1 2
16419 1 3.58145 -6.57614 0.02 0 -0.000507506 0.00050373 1 2
16420 1 3.59405 -6.75753 0.02 0 -0.00393593 0.000214972 1 2
16067 1 3.78573 -6.74459 0.02 0 -0.00760813 0.000116305 1 2
16068 1 3.98756 -6.76349 0.02 0 -0.0160992 0.000419809 1 2
16069 1 3.81947 -6.57221 0.02 0 -0.00453975 0.000146413 1 2
16070 1 3.99977 -6.57679 0.02 0 -0.0058232 0.000545417 1.0267 2
16071 1 4.10347 -6.72851 0.00623602 0.00146372 0.000281407 -8.75672e-05 1.04857 0
16073 1 4.16549 -6.54168 0.00743902 0.00350639 -8.88177e-05 0.000112211 1.05382 0
16072 1 4.22351 -6.69951 0.00489809 0.000381861 5.78752e-06 -7.77422e-05 1.05713 0
16074 1 4.23913 -6.44515 0.00662536 0.00330367 -0.000196238 3.9372e-05 1.05626 0
16075 1 4.31702 -6.61751 0.0062918 0.00151067 -1.96014e-05 7.11152e-06 1.05512 0
16077 1 4.00001 -6.54418 0.0176888 0.00026116 -0.00924494 0.00104464 1.03341 0
16076 1 4.39586 -6.7092 0.00475912 -0.000476754 -7.09954e-06 1.45361e-05 1.05356 0
15363 1 3.99969 -6.68107 0.02 0 -0.0121093 0.00112154 1.03432 2
15362 1 4.00047 -6.85225 0.00123278 -0.000478332 -0.00138178 -4.51961e-05 1.0473 0
16079 1 4.52702 -6.61506 0.00762609 0.00125323 -2.30968e-05 6.06095e-06 1.04808 0
16080 1 4.64772 -6.53631 0.0086995 0.00175021 -1.56875e-05 3.97188e-06 1.04653 0
16083 1 4.49607 -6.79708 0.00349823 -0.00122822 4.24948e-06 1.56216e-05 1.05283 0
16084 1 4.71346 -6.64802 0.00602151 0.000910526 -8.68733e-06 2.71891e-06 1.04659 0
15599 1 4.83018 -6.52789 0.00772196 0.00154836 -8.21548e-06 3.02594e-06 1.04662 0
15754 1 4.67067 -6.8001 0.00324623 -0.000604989 -3.25105e-06 4.67728e-07 1.05039 0
15602 1 4.93968 -6.59834 0.00586057 0.00107028 -5.58291e-06 3.36013e-06 1.04668 0
15758 1 4.84008 -6.72347 0.0037708 0.000353196 -3.71867e-06 1.66765e-06 1.04733 0
15762 1 5.07062 -6.60743 0.00510584 0.000843298 -5.35394e-06 5.18228e-06 1.04681 0
15348 1 4.972 -6.79757 0.00215017 -0.000570566 -3.17165e-06 3.04923e-06 1.04966 0
14630 1 5.15438 -6.68144 0.00341812 0.000385675 -5.12669e-06 5.37593e-06 1.04711 0
15011 1 5.21371 -6.80166 0.00171614 -0.000706555 -4.31234e-06 4.73888e-06 1.0498 0
15763 1 5.26827 -6.57095 0.00512173 0.000806306 -7.63515e-06 8.86469e-06 1.04667 0
15353 1 5.39404 -6.60746 0.00423398 0.000576207 -9.31938e-06 9.08948e-06 1.04658 0
15357 1 5.52015 -6.55144 0.00486252 0.000661135 -1.20388e-05 1.11964e-05 1.04648 0
15019 1 5.61977 -6.60873 0.00383796 0.000455032 -1.14092e-05 9.77412e-06 1.0465 0
14789 1 5.38358 -6.75762 0.0020648 -0.000326353 -6.60907e-06 6.10664e-06 1.04849 0
14793 1 5.54048 -6.79073 0.00161658 -0.000699068 -7.02553e-06 5.95999e-06 1.04938 0
15365 1 5.78251 -6.57755 0.00404598 0.000455051 -1.20342e-05 1.02386e-05 1.04643 0
14324 1 5.70752 -6.71824 0.0022107 -4.67354e-05 -8.82963e-06 6.89766e-06 1.04745 0
15015 1 5.94742 -6.50412 0.00474418 0.000521003 -1.2e-05 1.02841e-05 1.04638 0
15023 1 5.93653 -6.63316 0.00309108 0.000268556 -9.33664e-06 7.59932e-06 1.0465 0
15026 1 6.10342 -6.52248 0.00431843 0.000425061 -9.46136e-06 8.21204e-06 1.0463 0
13971 1 5.82364 -6.80698 0.00129608 -0.000843291 -6.4535e-06 4.89734e-06 1.04962 0
13644 1 6.00581 -6.73614 0.00178019 -0.000224714 -6.45585e-06 4.96028e-06 1.04768 0
14317 1 6.18098 -6.62179 0.00301067 0.000248984 -6.28814e-06 5.61143e-06 1.04637 0
13274 1 6.13847 -6.81293 0.00116328 -0.000919185 -3.99738e-06 2.86102e-06 1.04952 0
13969 1 6.32003 -6.5663 0.00358008 0.000307123 -5.0849e-06 4.8276e-06 1.04623 0
14790 1 6.4629 -6.59091 0.00316455 0.000254653 -2.49624e-06 2.81763e-06 1.04624 0
13289 1 6.3013 -6.73282 0.00168951 -0.000270778 -3.24276e-06 2.72009e-06 1.04761 0
12949 1 6.4409 -6.78199 0.00122656 -0.000714192 -1.35725e-06 1.01888e-06 1.04887 0
14320 1 6.60063 -6.5938 0.00303641 0.000245817 -5.78583e-07 1.13624e-06 1.04621 0
13979 1 6.74353 -6.58605 0.00303229 0.000251379 7.25321e-07 -4.60622e-07 1.04613 0
12617 1 6.59751 -6.7571 0.00135089 -0.000475966 5.14173e-08 1.84722e-07 1.04815 0
13983 1 6.8739 -6.6361 0.0023958 0.000172091 1.80112e-06 -1.72386e-06 1.04623 0
11882 1 6.75253 -6.78757 0.00108195 -0.000693491 1.19024e-06 -9.10779e-07 1.04881 0
11552 1 6.93793 -6.80668 0.000981625 -0.000804329 1.88461e-06 -1.82903e-06 1.04908 0
13641 1 7.08063 -6.51254 0.00360016 0.000284379 1.13372e-06 -3.68788e-06 1.04604 0
13276 1 7.03951 -6.65365 0.00211721 0.000129721 2.19856e-06 -2.74288e-06 1.04627 0
12936 1 7.20497 -6.60314 0.00260815 0.000219252 1.79492e-06 -3.95012e-06 1.04605 0
15661 1 5.70461 -0.122254 0.0129354 -0.000647441 -5.08316e-06 -1.05441e-06 1.0465 0
11164 1 7.14576 -6.78487 0.00105088 -0.000611239 2.18374e-06 -2.48988e-06 1.04851 0
11323 1 7.33011 -6.79746 0.000938701 -0.000716357 1.98788e-06 -2.59005e-06 1.04883 0
16422 1 1.60427 -6.14001 0.02 0 0 0 1 2
16421 1 1.78099 -6.37302 0.02 0 1.13181e-05 9.43585e-06 1 2
16423 1 1.78328 -6.17699 0.02 0 5.17193e-07 1.28847e-06 1 2
16424 1 1.98614 -6.37279 0.02 0 7.54401e-05 0.000134929 1 2
16426 1 1.97108 -6.17854 0.02 0 1.40951e-06 4.87669e-06 1 2
16425 1 2.18711 -6.37301 0.02 0 8.44169e-05 0.000142981 1 2
16427 1 2.16489 -6.17868 0.02 0 3.81052e-06 8.69239e-06 1 2
16428 1 2.37955 -6.34968 0.02 0 7.39448e-05 0.000112803 1 2
16430 1 2.36258 -6.15582 0.02 0 3.42525e-06 6.97376e-06 1 2
16429 1 2.56643 -6.38741 0.02 0 0.000106277 0.000157335 1 2
16431 1 2.56296 -6.18703 0.02 0 5.8608e-06 1.18189e-05 1 2
16432 1 2.75769 -6.35636 0.02 0 7.65566e-05 0.00011171 1 2
16434 1 2.76355 -6.16656 0.02 0 3.9525e-06 8.70947e-06 1 2
16433 1 2.95422 -6.37526 0.02 0 9.21883e-05 0.000137457 1 2
16435 1 2.96527 -6.18666 0.02 0 5.57101e-06 1.20081e-05 1 2
16436 1 3.15321 -6.38288 0.02 0 0.000106525 0.000149459 1 2
16437 1 3.17457 -6.19235 0.02 0 6.20353e-06 1.33451e-05 1 2
16438 1 3.35844 -6.38424 0.02 0 0.000104424 0.000137764 1 2
16439 1 3.37778 -6.19559 0.02 0 5.3686e-06 1.32784e-05 1 2
16440 1 3.58038 -6.21836 0.02 0 -0.000777703 1.16395e-05 1 2
16441 1 3.56999 -6.40087 0.02 0 -0.000550747 0.000135748 1 2
16086 1 3.77746 -6.40575 0.02 0 -0.00425825 -0.000276552 1 2
16088 1 3.79885 -6.22649 0.02 0 -0.00479997 -1.47261e-05 1 2
16087 1 3.99992 -6.39811 0.02 0 -0.00623644 0.000264596 1.00382 2
16089 1 3.99958 -6.21805 0.02 0 -0.00638081 -0.000107075 1.02467 2
16090 1 4.00102 -6.40812 0.00722669 0.000620674 -0.000404511 -6.20085e-05 1.03129 0
16092 1 3.99978 -6.19223 0.02 0 -0.00629455 -0.000138566 1.03351 2
16078 1 4.50944 -6.42328 0.0104865 0.00244776 -2.78754e-05 -1.75495e-06 1.04807 0
16081 1 4.39833 -6.49822 0.00889901 0.00246957 -4.01064e-05 4.93276e-06 1.05196 0
16091 1 4.00248 -6.33694 0.00637266 0.000194535 -0.000280313 -3.22306e-05 1.03539 0
16093 1 4.24537 -6.11032 0.00853661 0.00160155 -0.000305596 1.73831e-06 1.05438 0
16094 1 4.36745 -6.2319 0.00974386 0.0028206 -7.56644e-05 -8.49933e-06 1.05213 0
16096 1 4.40938 -6.09542 0.011604 0.00299824 -2.30054e-05 -2.48651e-05 1.05001 0
16095 1 4.32379 -6.3456 0.00788258 0.00283466 -0.000128471 -3.57258e-07 1.05434 0
16098 1 4.51854 -6.25909 0.0116918 0.00290038 -8.34349e-06 -5.63393e-06 1.04769 0
16101 1 4.17805 -6.25184 0.00717318 0.00108155 -0.000518394 8.8559e-05 1.05326 0
16082 1 4.64655 -6.37521 0.0106618 0.00248477 -1.37419e-05 9.13586e-07 1.04665 0
16085 1 4.67358 -6.2197 0.0116826 0.00293783 -1.8508e-06 -1.10464e-06 1.04671 0
16097 1 4.5591 -6.09679 0.0124602 0.00319566 1.44136e-05 -4.87098e-06 1.04698 0
16099 1 4.78901 -6.12874 0.0116933 0.00309918 5.00631e-06 1.91882e-06 1.04707 0
15600 1 4.78171 -6.39437 0.00977175 0.00219965 -9.00656e-06 2.67919e-06 1.04683 0
16102 1 4.91734 -6.05031 0.011571 0.00317436 6.32046e-06 7.15776e-06 1.04744 0
15608 1 4.85573 -6.26031 0.01057 0.00257018 -2.92269e-06 4.01363e-06 1.04729 0
15603 1 5.06369 -6.46169 0.00744073 0.00145745 -5.97539e-06 7.24308e-06 1.04715 0
15606 1 4.99264 -6.18678 0.0104873 0.0025827 8.39796e-08 8.14462e-06 1.04762 0
15601 1 5.09232 -6.28896 0.00925894 0.00201701 -4.31534e-06 1.01353e-05 1.04754 0
15604 1 4.94828 -6.38361 0.00894633 0.00194401 -5.36855e-06 5.66542e-06 1.04731 0
15610 1 5.09566 -6.07546 0.0108414 0.00279483 8.80158e-07 1.18392e-05 1.04753 0
15755 1 5.20338 -6.42972 0.00731387 0.00135388 -7.55671e-06 1.06673e-05 1.04708 0
15777 1 5.23533 -6.07907 0.0104403 0.00249785 -5.39703e-06 1.4573e-05 1.04734 0
15605 1 5.22148 -6.24542 0.0092094 0.00192872 -6.84443e-06 1.34311e-05 1.04741 0
15770 1 5.37693 -6.06819 0.0101368 0.00225971 -1.06908e-05 1.61148e-05 1.04715 0
15756 1 5.36118 -6.23265 0.00889728 0.00172979 -1.07682e-05 1.54221e-05 1.04721 0
15759 1 5.34428 -6.40278 0.00719883 0.00124349 -1.0444e-05 1.31393e-05 1.04693 0
15757 1 5.50185 -6.23429 0.00848912 0.00150284 -1.4135e-05 1.61226e-05 1.04706 0
15760 1 5.60795 -6.10749 0.00926721 0.00172055 -1.63989e-05 1.65623e-05 1.04703 0
15761 1 5.47985 -6.40984 0.00674654 0.00106208 -1.29728e-05 1.39352e-05 1.04676 0
15347 1 5.61729 -6.35788 0.00698403 0.00103196 -1.50655e-05 1.47587e-05 1.0468 0
15764 1 5.69105 -6.20866 0.00824207 0.00130837 -1.66647e-05 1.58276e-05 1.04699 0
15765 1 5.8583 -6.08391 0.00889162 0.00141187 -1.81546e-05 1.48311e-05 1.04697 0
15349 1 5.7231 -6.44062 0.00585264 0.000761586 -1.46019e-05 1.31725e-05 1.04657 0
15350 1 5.81061 -6.25455 0.00756596 0.00105023 -1.64638e-05 1.46667e-05 1.04691 0
15354 1 5.95965 -6.21035 0.007666 0.00098709 -1.59583e-05 1.31884e-05 1.04692 0
15361 1 5.87335 -6.38807 0.00613771 0.000737437 -1.45357e-05 1.27259e-05 1.04664 0
15355 1 6.1243 -6.18321 0.00761066 0.000882174 -1.43121e-05 1.09474e-05 1.0469 0
15358 1 6.0335 -6.34332 0.0063131 0.000691666 -1.32282e-05 1.12409e-05 1.04669 0
15356 1 6.25005 -6.10342 0.0080642 0.000919119 -1.38449e-05 9.26859e-06 1.04689 0
15366 1 6.16443 -6.36374 0.00591157 0.000581573 -1.08162e-05 9.12791e-06 1.0466 0
15367 1 6.32089 -6.23133 0.00689948 0.000653448 -1.03238e-05 7.44736e-06 1.0468 0
15028 1 6.46726 -6.14274 0.00744939 0.000681687 -9.75136e-06 5.3536e-06 1.04685 0
15014 1 6.28524 -6.38579 0.00552941 0.000498463 -8.34021e-06 7.07213e-06 1.04651 0
15013 1 6.51168 -6.2714 0.00630478 0.000505806 -6.61682e-06 4.00255e-06 1.04669 0
15018 1 6.40971 -6.41861 0.00505974 0.000429641 -5.68299e-06 4.84991e-06 1.04639 0
14631 1 6.55294 -6.42147 0.00488086 0.000389062 -3.457e-06 2.65007e-06 1.04634 0
15022 1 6.67371 -6.25535 0.00626841 0.000451105 -4.92582e-06 1.44696e-06 1.04669 0
15016 1 6.77489 -6.08035 0.00760484 0.000575673 -7.53082e-06 6.43786e-07 1.04681 0
15027 1 6.83022 -6.23638 0.00628198 0.000404907 -4.00463e-06 -7.61687e-07 1.04669 0
14635 1 6.69489 -6.42868 0.00468084 0.000357308 -1.67068e-06 5.23009e-07 1.04629 0
15025 1 6.98978 -6.18789 0.00655745 0.000379638 -4.25775e-06 -2.6102e-06 1.04672 0
14638 1 6.83624 -6.389 0.00493113 0.000334278 -1.19904e-06 -1.28632e-06 1.04636 0
13975 1 6.92871 -6.49074 0.00391269 0.000304634 7.06199e-07 -2.39405e-06 1.0461 0
15364 1 6.62798 -6.09788 0.00761866 0.000640714 -8.60948e-06 2.86694e-06 1.04683 0
14629 1 7.14729 -6.15653 0.00670675 0.000345936 -4.71504e-06 -4.00932e-06 1.04672 0
14634 1 7.00976 -6.32667 0.00535934 0.000314296 -1.70023e-06 -3.12624e-06 1.04648 0
14641 1 7.26357 -6.21362 0.00617211 0.000284749 -4.09384e-06 -4.96496e-06 1.04665 0
14312 1 7.14648 -6.37573 0.00483889 0.000282643 -1.00921e-06 -4.3419e-06 1.04635 0
14313 1 7.30044 -6.35351 0.00495557 0.000254913 -2.02364e-06 -5.24466e-06 1.04639 0
15209 1 6.74787 -0.0137033 0.0128772 -0.000551877 -4.92608e-06 -2.23754e-06 1.04671 0
14328 1 7.32772 -6.48073 0.00380116 0.000259863 -2.515e-07 -5.0688e-06 1.0461 0
16442 1 1.6393 -5.9255 0.02 0 0 0 1 2
16443 1 1.64518 -5.71264 0.02 0 0 0 1 2
16444 1 1.82005 -5.97061 0.02 0 1.71533e-09 9.13803e-09 1 2
16445 1 1.8297 -5.7563 0.02 0 4.0164e-14 3.56927e-13 1 2
16446 1 2.00843 -5.98028 0.02 0 6.09246e-09 5.11005e-08 1 2
16448 1 2.0212 -5.77886 0.02 0 1.7471e-12 2.79225e-11 1 2
16447 1 2.19762 -5.97288 0.02 0 1.02447e-08 5.19857e-08 1 2
16449 1 2.21915 -5.76461 0.02 0 1.92068e-12 1.40628e-11 1 2
16450 1 2.39175 -5.96398 0.02 0 7.83726e-09 3.67995e-08 1 2
16452 1 2.41955 -5.77335 0.02 0 3.0827e-12 1.42038e-11 1 2
16451 1 2.59217 -5.99492 0.02 0 3.00688e-08 1.1264e-07 1 2
16453 1 2.62181 -5.80768 0.02 0 2.42239e-11 1.9051e-10 1 2
16454 1 2.81219 -5.98893 0.02 0 2.41873e-08 1.13693e-07 1 2
16456 1 2.83608 -5.81042 0.02 0 2.45722e-11 1.03336e-10 1 2
16455 1 3.03503 -6.01275 0.02 0 6.16608e-08 2.72304e-07 1 2
16457 1 3.05222 -5.82998 0.02 0 8.41462e-11 4.06702e-10 1 2
16458 1 3.24471 -6.00474 0.02 0 4.09433e-08 1.8346e-07 1 2
16460 1 3.27115 -5.81574 0.02 0 6.79295e-11 3.0891e-10 1 2
16104 1 3.63506 -6.03328 0.02 0 -0.00136849 9.58781e-05 1 2
16107 1 3.67429 -5.83368 0.02 0 -0.0015723 9.68952e-05 1 2
16459 1 3.44446 -6.00243 0.02 0 -2.86064e-05 1.31803e-06 1 2
16461 1 3.48006 -5.80261 0.02 0 -5.16512e-05 1.02489e-06 1 2
16105 1 3.82673 -6.03474 0.02 0 -0.00520054 0.000173526 1 2
16106 1 3.99954 -6.01714 0.02 0 -0.00574169 2.9597e-05 1.02633 2
16108 1 3.86843 -5.82876 0.02 0 -0.00562572 3.96724e-05 1 2
16109 1 3.99989 -5.82971 0.02 0 -0.008639 -0.000189607 1.03109 2
16110 1 3.99964 -5.99686 0.02 0 -0.00569448 4.1588e-05 1.03449 2
15607 1 4.37639 -5.96593 0.0116821 0.00277701 8.05875e-06 -2.07851e-05 1.05039 0
16111 1 4.01327 -6.07816 0.0081144 -0.000492436 -0.000366407 0.000112277 1.03747 0
16112 1 4.14671 -5.82101 0.0098042 0.00100371 0.000131647 -5.22471e-05 1.05146 0
16113 1 4.1068 -5.72761 0.00978058 0.000622469 0.000110678 0.00016887 1.0492 0
16114 1 4.18165 -5.95498 0.00958308 0.00100755 -0.000276801 -0.000174216 1.05279 0
16116 1 4.42727 -5.72487 0.013156 0.00305164 3.67129e-05 2.11105e-05 1.04798 0
16118 1 4.31672 -5.65717 0.011848 0.00248109 1.34004e-05 6.22818e-05 1.05094 0
16117 1 4.30061 -5.8449 0.0109359 0.00208343 4.76027e-05 -1.18159e-05 1.05194 0
16120 1 4.49613 -5.83752 0.0131853 0.00327398 3.48091e-05 1.14129e-05 1.0471 0
16124 1 4.53778 -5.60565 0.0135647 0.00356513 2.28358e-05 1.63119e-05 1.04627 0
16100 1 4.70279 -6.01287 0.0124954 0.00340047 1.74923e-05 3.16231e-06 1.04672 0
16115 1 4.57189 -5.94154 0.0129568 0.00338188 2.96795e-05 6.90424e-06 1.04669 0
16122 1 4.62801 -5.71088 0.0133993 0.00370928 2.27534e-05 1.3671e-05 1.04627 0
15614 1 4.70612 -5.83066 0.0130096 0.00369079 2.02241e-05 9.9482e-06 1.04658 0
16103 1 4.83005 -5.91961 0.0123913 0.00357258 1.34086e-05 7.85487e-06 1.0471 0
16121 1 4.91194 -5.79311 0.0125103 0.00379507 1.24977e-05 1.09855e-05 1.04719 0
16123 1 4.79966 -5.68861 0.0130265 0.00395199 1.59224e-05 1.21961e-05 1.04677 0
15609 1 5.01236 -5.92935 0.0117938 0.00339611 7.12298e-06 1.08573e-05 1.04741 0
15611 1 5.17506 -5.91609 0.0114723 0.00316089 -5.03092e-07 1.33385e-05 1.04725 0
16125 1 4.97824 -5.64653 0.0126772 0.00402044 9.88315e-06 1.1052e-05 1.0471 0
15612 1 5.08047 -5.78353 0.0121541 0.00366262 5.70952e-06 1.19751e-05 1.04722 0
15613 1 5.1386 -5.6296 0.0124725 0.00389346 2.21985e-06 1.06827e-05 1.047 0
15773 1 5.32087 -5.90222 0.0112261 0.00291863 -7.94104e-06 1.476e-05 1.04704 0
15775 1 5.24303 -5.7465 0.0120118 0.00348141 -3.63611e-06 1.26596e-05 1.04698 0
15616 1 5.39595 -5.7316 0.0118071 0.00323042 -1.06683e-05 1.33143e-05 1.04683 0
15766 1 5.5109 -6.0207 0.0101148 0.00217242 -1.4712e-05 1.65959e-05 1.04702 0
15769 1 5.47 -5.87769 0.0110281 0.00269835 -1.36601e-05 1.54686e-05 1.04691 0
15768 1 5.56036 -5.74232 0.011482 0.00288342 -1.64452e-05 1.40533e-05 1.04678 0
15772 1 5.73556 -6.00352 0.00971783 0.00183114 -1.86211e-05 1.5915e-05 1.04694 0
15767 1 5.63789 -5.88975 0.0106165 0.00234303 -1.79854e-05 1.57209e-05 1.04687 0
15771 1 5.69928 -5.69572 0.0114577 0.00272056 -1.98421e-05 1.35114e-05 1.04675 0
15774 1 5.78805 -5.82016 0.0107179 0.00225208 -2.04829e-05 1.45794e-05 1.04682 0
15351 1 6.02537 -6.05433 0.00880435 0.00127039 -1.7585e-05 1.28739e-05 1.04693 0
15776 1 5.89928 -5.92492 0.00991446 0.00178895 -2.00052e-05 1.43285e-05 1.04687 0
15369 1 5.99799 -5.79722 0.0105105 0.00194123 -2.13367e-05 1.28993e-05 1.0468 0
15778 1 5.90011 -5.69265 0.0111849 0.00234546 -2.21657e-05 1.28323e-05 1.04676 0
15779 1 6.08246 -5.63059 0.0112495 0.00214775 -2.2785e-05 1.10496e-05 1.04675 0
15352 1 6.08711 -5.91851 0.00964753 0.00152514 -1.9146e-05 1.21593e-05 1.04685 0
15371 1 6.15817 -5.75889 0.0105042 0.00177069 -2.08777e-05 1.09325e-05 1.04679 0
15374 1 6.21879 -5.96145 0.00916139 0.00125489 -1.69964e-05 1.0239e-05 1.04686 0
15360 1 6.3669 -5.88959 0.0094438 0.00123292 -1.63985e-05 8.08685e-06 1.04683 0
15370 1 6.29129 -5.76143 0.0103262 0.00157218 -1.95206e-05 9.24931e-06 1.0468 0
15373 1 6.44476 -5.71621 0.0104164 0.00144708 -1.83867e-05 7.05747e-06 1.04679 0