ITEM: TIMESTEP
34000
ITEM: NUMBER OF ATOMS
11196
ITEM: BOX BOUNDS ff ff pp
0.0000000000000000e+00 2.2000000000000000e+01
-1.0000000000000000e+01 1.0000000000000000e+01
-2.0000000000000000e-02 2.0000000000000000e-02
ITEM: ATOMS id type x y vx vy fx fy c_den c_phase
1501 2 2 -10 0 0 0 0 1 5
1551 2 2 -9.8 0 0 0 0 1 5
1601 2 2 -9.6 0 0 0 0 1 5
1502 2 2.2 -10 0 0 0 0 1 5
1503 2 2.4 -10 0 0 0 0 1 5
1552 2 2.2 -9.8 0 0 0 0 1 5
1553 2 2.4 -9.8 0 0 0 0 1 5
1602 2 2.2 -9.6 0 0 0 0 1 5
1603 2 2.4 -9.6 0 0 0 0 1 5
1504 2 2.6 -10 0 0 0 0 1 5
1505 2 2.8 -10 0 0 0 0 1 5
1554 2 2.6 -9.8 0 0 0 0 1 5
1555 2 2.8 -9.8 0 0 0 0 1 5
1604 2 2.6 -9.6 0 0 0 0 1 5
1605 2 2.8 -9.6 0 0 0 0 1 5
1506 2 3 -10 0 0 0 0 1 5
1507 2 3.2 -10 0 0 0 0 1 5
1556 2 3 -9.8 0 0 0 0 1 5
1557 2 3.2 -9.8 0 0 0 0 1 5
1606 2 3 -9.6 0 0 0 0 1 5
1607 2 3.2 -9.6 0 0 0 0 1 5
1508 2 3.4 -10 0 0 0 0 1 5
1509 2 3.6 -10 0 0 0 0 1 5
1558 2 3.4 -9.8 0 0 0 0 1 5
1559 2 3.6 -9.8 0 0 0 0 1 5
1608 2 3.4 -9.6 0 0 0 0 1 5
1609 2 3.6 -9.6 0 0 0 0 1 5
1510 2 3.8 -10 0 0 0 0 1 5
1560 2 3.8 -9.8 0 0 0 0 1 5
1610 2 3.8 -9.6 0 0 0 0 1 5
1511 2 4 -10 0 0 0 0 1 5
1561 2 4 -9.8 0 0 0 0 1 5
1611 2 4 -9.6 0 0 0 0 1 5
1512 2 4.2 -10 0 0 0 0 1 5
1562 2 4.2 -9.8 0 0 0 0 1 5
1612 2 4.2 -9.6 0 0 0 0 1 5
1513 2 4.4 -10 0 0 0 0 1 5
1514 2 4.6 -10 0 0 0 0 1 5
1563 2 4.4 -9.8 0 0 0 0 1 5
1564 2 4.6 -9.8 0 0 0 0 1 5
1613 2 4.4 -9.6 0 0 0 0 1 5
1614 2 4.6 -9.6 0 0 0 0 1 5
1515 2 4.8 -10 0 0 0 0 1 5
1516 2 5 -10 0 0 0 0 1 5
1565 2 4.8 -9.8 0 0 0 0 1 5
1566 2 5 -9.8 0 0 0 0 1 5
1615 2 4.8 -9.6 0 0 0 0 1 5
1616 2 5 -9.6 0 0 0 0 1 5
1517 2 5.2 -10 0 0 0 0 1 5
1518 2 5.4 -10 0 0 0 0 1 5
1567 2 5.2 -9.8 0 0 0 0 1 5
1568 2 5.4 -9.8 0 0 0 0 1 5
1617 2 5.2 -9.6 0 0 0 0 1 5
1618 2 5.4 -9.6 0 0 0 0 1 5
1519 2 5.6 -10 0 0 0 0 1 5
1520 2 5.8 -10 0 0 0 0 1 5
1569 2 5.6 -9.8 0 0 0 0 1 5
1570 2 5.8 -9.8 0 0 0 0 1 5
1619 2 5.6 -9.6 0 0 0 0 1 5
1620 2 5.8 -9.6 0 0 0 0 1 5
1521 2 6 -10 0 0 0 0 1 5
1522 2 6.2 -10 0 0 0 0 1 5
1571 2 6 -9.8 0 0 0 0 1 5
1572 2 6.2 -9.8 0 0 0 0 1 5
1621 2 6 -9.6 0 0 0 0 1 5
1622 2 6.2 -9.6 0 0 0 0 1 5
1523 2 6.4 -10 0 0 0 0 1 5
1524 2 6.6 -10 0 0 0 0 1 5
1573 2 6.4 -9.8 0 0 0 0 1 5
1574 2 6.6 -9.8 0 0 0 0 1 5
1623 2 6.4 -9.6 0 0 0 0 1 5
1624 2 6.6 -9.6 0 0 0 0 1 5
1525 2 6.8 -10 0 0 0 0 1 5
1526 2 7 -10 0 0 0 0 1 5
1575 2 6.8 -9.8 0 0 0 0 1 5
1576 2 7 -9.8 0 0 0 0 1 5
1625 2 6.8 -9.6 0 0 0 0 1 5
1626 2 7 -9.6 0 0 0 0 1 5
1527 2 7.2 -10 0 0 0 0 1 5
1577 2 7.2 -9.8 0 0 0 0 1 5
1627 2 7.2 -9.6 0 0 0 0 1 5
1528 2 7.4 -10 0 0 0 0 1 5
1529 2 7.6 -10 0 0 0 0 1 5
1578 2 7.4 -9.8 0 0 0 0 1 5
1579 2 7.6 -9.8 0 0 0 0 1 5
1628 2 7.4 -9.6 0 0 0 0 1 5
1629 2 7.6 -9.6 0 0 0 0 1 5
1530 2 7.8 -10 0 0 0 0 1 5
1531 2 8 -10 0 0 0 0 1 5
1580 2 7.8 -9.8 0 0 0 0 1 5
1581 2 8 -9.8 0 0 0 0 1 5
1630 2 7.8 -9.6 0 0 0 0 1 5
1631 2 8 -9.6 0 0 0 0 1 5
1532 2 8.2 -10 0 0 0 0 1 5
1533 2 8.4 -10 0 0 0 0 1 5
1582 2 8.2 -9.8 0 0 0 0 1 5
1583 2 8.4 -9.8 0 0 0 0 1 5
1632 2 8.2 -9.6 0 0 0 0 1 5
1633 2 8.4 -9.6 0 0 0 0 1 5
1534 2 8.6 -10 0 0 0 0 1 5
1535 2 8.8 -10 0 0 0 0 1 5
1584 2 8.6 -9.8 0 0 0 0 1 5
1585 2 8.8 -9.8 0 0 0 0 1 5
1634 2 8.6 -9.6 0 0 0 0 1 5
1635 2 8.8 -9.6 0 0 0 0 1 5
1536 2 9 -10 0 0 0 0 1 5
1537 2 9.2 -10 0 0 0 0 1 5
1586 2 9 -9.8 0 0 0 0 1 5
1587 2 9.2 -9.8 0 0 0 0 1 5
1636 2 9 -9.6 0 0 0 0 1 5
1637 2 9.2 -9.6 0 0 0 0 1 5
1538 2 9.4 -10 0 0 0 0 1 5
1539 2 9.6 -10 0 0 0 0 1 5
1588 2 9.4 -9.8 0 0 0 0 1 5
1589 2 9.6 -9.8 0 0 0 0 1 5
1638 2 9.4 -9.6 0 0 0 0 1 5
1639 2 9.6 -9.6 0 0 0 0 1 5
1540 2 9.8 -10 0 0 0 0 1 5
1590 2 9.8 -9.8 0 0 0 0 1 5
1640 2 9.8 -9.6 0 0 0 0 1 5
1541 2 10 -10 0 0 0 0 1 5
1591 2 10 -9.8 0 0 0 0 1 5
1641 2 10 -9.6 0 0 0 0 1 5
1542 2 10.2 -10 0 0 0 0 1 5
1592 2 10.2 -9.8 0 0 0 0 1 5
1642 2 10.2 -9.6 0 0 0 0 1 5
1543 2 10.4 -10 0 0 0 0 1 5
1593 2 10.4 -9.8 0 0 0 0 1 5
1643 2 10.4 -9.6 0 0 0 0 1 5
1544 2 10.6 -10 0 0 0 0 1 5
1594 2 10.6 -9.8 0 0 0 0 1 5
1644 2 10.6 -9.6 0 0 0 0 1 5
1545 2 10.8 -10 0 0 0 0 1 5
1595 2 10.8 -9.8 0 0 0 0 1 5
1645 2 10.8 -9.6 0 0 0 0 1 5
1651 2 2 -9.4 0 0 0 0 1 5
1701 2 2 -9.2 0 0 0 0 1 5
1652 2 2.2 -9.4 0 0 0 0 1 5
1653 2 2.4 -9.4 0 0 0 0 1 5
1702 2 2.2 -9.2 0 0 0 0 1 5
1703 2 2.4 -9.2 0 0 0 0 1 5
1654 2 2.6 -9.4 0 0 0 0 1 5
1655 2 2.8 -9.4 0 0 0 0 1 5
1704 2 2.6 -9.2 0 0 0 0 1 5
1705 2 2.8 -9.2 0 0 0 0 1 5
1656 2 3 -9.4 0 0 0 0 1 5
1657 2 3.2 -9.4 0 0 0 0 1 5
1706 2 3 -9.2 0 0 0 0 1 5
1707 2 3.2 -9.2 0 0 0 0 1 5
1658 2 3.4 -9.4 0 0 0 0 1 5
1659 2 3.6 -9.4 0 0 0 0 1 5
1708 2 3.4 -9.2 0 0 0 0 1 5
1709 2 3.6 -9.2 0 0 0 0 1 5
1660 2 3.8 -9.4 0 0 0 0 1 5
1710 2 3.8 -9.2 0 0 0 0 1 5
1661 2 4 -9.4 0 0 0 0 1 5
1711 2 4 -9.2 0 0 0 0 1 5
1662 2 4.2 -9.4 0 0 0 0 1 5
1712 2 4.2 -9.2 0 0 0 0 1 5
1663 2 4.4 -9.4 0 0 0 0 1 5
1664 2 4.6 -9.4 0 0 0 0 1 5
1713 2 4.4 -9.2 0 0 0 0 1 5
1714 2 4.6 -9.2 0 0 0 0 1 5
1665 2 4.8 -9.4 0 0 0 0 1 5
1666 2 5 -9.4 0 0 0 0 1 5
1715 2 4.8 -9.2 0 0 0 0 1 5
1716 2 5 -9.2 0 0 0 0 1 5
1667 2 5.2 -9.4 0 0 0 0 1 5
1668 2 5.4 -9.4 0 0 0 0 1 5
1717 2 5.2 -9.2 0 0 0 0 1 5
1718 2 5.4 -9.2 0 0 0 0 1 5
1669 2 5.6 -9.4 0 0 0 0 1 5
1670 2 5.8 -9.4 0 0 0 0 1 5
1719 2 5.6 -9.2 0 0 0 0 1 5
1720 2 5.8 -9.2 0 0 0 0 1 5
1671 2 6 -9.4 0 0 0 0 1 5
1672 2 6.2 -9.4 0 0 0 0 1 5
1721 2 6 -9.2 0 0 0 0 1 5
1722 2 6.2 -9.2 0 0 0 0 1 5
1673 2 6.4 -9.4 0 0 0 0 1 5
1674 2 6.6 -9.4 0 0 0 0 1 5
1723 2 6.4 -9.2 0 0 0 0 1 5
1724 2 6.6 -9.2 0 0 0 0 1 5
1675 2 6.8 -9.4 0 0 0 0 1 5
1676 2 7 -9.4 0 0 0 0 1 5
1725 2 6.8 -9.2 0 0 0 0 1 5
1726 2 7 -9.2 0 0 0 0 1 5
1677 2 7.2 -9.4 0 0 0 0 1 5
1727 2 7.2 -9.2 0 0 0 0 1 5
1678 2 7.4 -9.4 0 0 0 0 1 5
1679 2 7.6 -9.4 0 0 0 0 1 5
1728 2 7.4 -9.2 0 0 0 0 1 5
1729 2 7.6 -9.2 0 0 0 0 1 5
1680 2 7.8 -9.4 0 0 0 0 1 5
1681 2 8 -9.4 0 0 0 0 1 5
1730 2 7.8 -9.2 0 0 0 0 1 5
1731 2 8 -9.2 0 0 0 0 1 5
1682 2 8.2 -9.4 0 0 0 0 1 5
1683 2 8.4 -9.4 0 0 0 0 1 5
1732 2 8.2 -9.2 0 0 0 0 1 5
1733 2 8.4 -9.2 0 0 0 0 1 5
1684 2 8.6 -9.4 0 0 0 0 1 5
1685 2 8.8 -9.4 0 0 0 0 1 5
1734 2 8.6 -9.2 0 0 0 0 1 5
1735 2 8.8 -9.2 0 0 0 0 1 5
1686 2 9 -9.4 0 0 0 0 1 5
1687 2 9.2 -9.4 0 0 0 0 1 5
1736 2 9 -9.2 0 0 0 0 1 5
1737 2 9.2 -9.2 0 0 0 0 1 5
1688 2 9.4 -9.4 0 0 0 0 1 5
1689 2 9.6 -9.4 0 0 0 0 1 5
1738 2 9.4 -9.2 0 0 0 0 1 5
1739 2 9.6 -9.2 0 0 0 0 1 5
1690 2 9.8 -9.4 0 0 0 0 1 5
1740 2 9.8 -9.2 0 0 0 0 1 5
1691 2 10 -9.4 0 0 0 0 1 5
1741 2 10 -9.2 0 0 0 0 1 5
1692 2 10.2 -9.4 0 0 0 0 1 5
1742 2 10.2 -9.2 0 0 0 0 1 5
1693 2 10.4 -9.4 0 0 0 0 1 5
1743 2 10.4 -9.2 0 0 0 0 1 5
1694 2 10.6 -9.4 0 0 0 0 1 5
1744 2 10.6 -9.2 0 0 0 0 1 5
1695 2 10.8 -9.4 0 0 0 0 1 5
1745 2 10.8 -9.2 0 0 0 0 1 5
1751 2 2 -9 0 0 0 0 1 5
1801 2 2 -8.8 0 0 0 0 1 5
1752 2 2.2 -9 0 0 0 0 1 5
1753 2 2.4 -9 0 0 0 0 1 5
1802 2 2.2 -8.8 0 0 0 0 1 5
1803 2 2.4 -8.8 0 0 0 0 1 5
1754 2 2.6 -9 0 0 0 0 1 5
1755 2 2.8 -9 0 0 0 0 1 5
1804 2 2.6 -8.8 0 0 0 0 1 5
1805 2 2.8 -8.8 0 0 0 0 1 5
1756 2 3 -9 0 0 0 0 1 5
1757 2 3.2 -9 0 0 0 0 1 5
1806 2 3 -8.8 0 0 0 0 1 5
1807 2 3.2 -8.8 0 0 0 0 1 5
1758 2 3.4 -9 0 0 0 0 1 5
1759 2 3.6 -9 0 0 0 0 1 5
1808 2 3.4 -8.8 0 0 0 0 1 5
1809 2 3.6 -8.8 0 0 0 0 1 5
1760 2 3.8 -9 0 0 0 0 1 5
1810 2 3.8 -8.8 0 0 0 0 1 5
1761 2 4 -9 0 0 0 0 1 5
1811 2 4 -8.8 0 0 0 0 1 5
1762 2 4.2 -9 0 0 0 0 1 5
1812 2 4.2 -8.8 0 0 0 0 1 5
1763 2 4.4 -9 0 0 0 0 1 5
1764 2 4.6 -9 0 0 0 0 1 5
1813 2 4.4 -8.8 0 0 0 0 1 5
1814 2 4.6 -8.8 0 0 0 0 1 5
1765 2 4.8 -9 0 0 0 0 1 5
1766 2 5 -9 0 0 0 0 1 5
1815 2 4.8 -8.8 0 0 0 0 1 5
1816 2 5 -8.8 0 0 0 0 1 5
1767 2 5.2 -9 0 0 0 0 1 5
1768 2 5.4 -9 0 0 0 0 1 5
1817 2 5.2 -8.8 0 0 0 0 1 5
1818 2 5.4 -8.8 0 0 0 0 1 5
1769 2 5.6 -9 0 0 0 0 1 5
1770 2 5.8 -9 0 0 0 0 1 5
1819 2 5.6 -8.8 0 0 0 0 1 5
1820 2 5.8 -8.8 0 0 0 0 1 5
1771 2 6 -9 0 0 0 0 1 5
1772 2 6.2 -9 0 0 0 0 1 5
1821 2 6 -8.8 0 0 0 0 1 5
1822 2 6.2 -8.8 0 0 0 0 1 5
1773 2 6.4 -9 0 0 0 0 1 5
1774 2 6.6 -9 0 0 0 0 1 5
1823 2 6.4 -8.8 0 0 0 0 1 5
1824 2 6.6 -8.8 0 0 0 0 1 5
1775 2 6.8 -9 0 0 0 0 1 5
1776 2 7 -9 0 0 0 0 1 5
1825 2 6.8 -8.8 0 0 0 0 1 5
1826 2 7 -8.8 0 0 0 0 1 5
1777 2 7.2 -9 0 0 0 0 1 5
1827 2 7.2 -8.8 0 0 0 0 1 5
1778 2 7.4 -9 0 0 0 0 1 5
1779 2 7.6 -9 0 0 0 0 1 5
1828 2 7.4 -8.8 0 0 0 0 1 5
1829 2 7.6 -8.8 0 0 0 0 1 5
1780 2 7.8 -9 0 0 0 0 1 5
1781 2 8 -9 0 0 0 0 1 5
1830 2 7.8 -8.8 0 0 0 0 1 5
1831 2 8 -8.8 0 0 0 0 1 5
1782 2 8.2 -9 0 0 0 0 1 5
1783 2 8.4 -9 0 0 0 0 1 5
1832 2 8.2 -8.8 0 0 0 0 1 5
1833 2 8.4 -8.8 0 0 0 0 1 5
1784 2 8.6 -9 0 0 0 0 1 5
1785 2 8.8 -9 0 0 0 0 1 5
1834 2 8.6 -8.8 0 0 0 0 1 5
1835 2 8.8 -8.8 0 0 0 0 1 5
1786 2 9 -9 0 0 0 0 1 5
1787 2 9.2 -9 0 0 0 0 1 5
1836 2 9 -8.8 0 0 0 0 1 5
1837 2 9.2 -8.8 0 0 0 0 1 5
1788 2 9.4 -9 0 0 0 0 1 5
1789 2 9.6 -9 0 0 0 0 1 5
1838 2 9.4 -8.8 0 0 0 0 1 5
1839 2 9.6 -8.8 0 0 0 0 1 5
1790 2 9.8 -9 0 0 0 0 1 5
1840 2 9.8 -8.8 0 0 0 0 1 5
1791 2 10 -9 0 0 0 0 1 5
1841 2 10 -8.8 0 0 0 0 1 5
1792 2 10.2 -9 0 0 0 0 1 5
1842 2 10.2 -8.8 0 0 0 0 1 5
1793 2 10.4 -9 0 0 0 0 1 5
1843 2 10.4 -8.8 0 0 0 0 1 5
1794 2 10.6 -9 0 0 0 0 1 5
1844 2 10.6 -8.8 0 0 0 0 1 5
1795 2 10.8 -9 0 0 0 0 1 5
1845 2 10.8 -8.8 0 0 0 0 1 5
1851 2 2 -8.6 0 0 0 0 1 5
1901 2 2 -8.4 0 0 0 0 1 5
1852 2 2.2 -8.6 0 0 0 0 1 5
1853 2 2.4 -8.6 0 0 0 0 1 5
1902 2 2.2 -8.4 0 0 0 0 1 5
1903 2 2.4 -8.4 0 0 0 0 1 5
1854 2 2.6 -8.6 0 0 0 0 1 5
1855 2 2.8 -8.6 0 0 0 0 1 5
1904 2 2.6 -8.4 0 0 0 0 1 5
1905 2 2.8 -8.4 0 0 0 0 1 5
1856 2 3 -8.6 0 0 0 0 1 5
1857 2 3.2 -8.6 0 0 0 0 1 5
1906 2 3 -8.4 0 0 0 0 1 5
1907 2 3.2 -8.4 0 0 0 0 1 5
1858 2 3.4 -8.6 0 0 0 0 1 5
1859 2 3.6 -8.6 0 0 0 0 1 5
1908 2 3.4 -8.4 0 0 0 0 1 5
1909 2 3.6 -8.4 0 0 0 0 1 5
1860 2 3.8 -8.6 0 0 0 0 1 5
1910 2 3.8 -8.4 0 0 0 0 1 5
1861 2 4 -8.6 0 0 0 0 1 5
1911 2 4 -8.4 0 0 0 0 1 5
1862 2 4.2 -8.6 0 0 0 0 1 5
1912 2 4.2 -8.4 0 0 0 0 1 5
1863 2 4.4 -8.6 0 0 0 0 1 5
1864 2 4.6 -8.6 0 0 0 0 1 5
1913 2 4.4 -8.4 0 0 0 0 1 5
1914 2 4.6 -8.4 0 0 0 0 1 5
1865 2 4.8 -8.6 0 0 0 0 1 5
1866 2 5 -8.6 0 0 0 0 1 5
1915 2 4.8 -8.4 0 0 0 0 1 5
1916 2 5 -8.4 0 0 0 0 1 5
1867 2 5.2 -8.6 0 0 0 0 1 5
1868 2 5.4 -8.6 0 0 0 0 1 5
1917 2 5.2 -8.4 0 0 0 0 1 5
1918 2 5.4 -8.4 0 0 0 0 1 5
1869 2 5.6 -8.6 0 0 0 0 1 5
1870 2 5.8 -8.6 0 0 0 0 1 5
1919 2 5.6 -8.4 0 0 0 0 1 5
1920 2 5.8 -8.4 0 0 0 0 1 5
1871 2 6 -8.6 0 0 0 0 1 5
1872 2 6.2 -8.6 0 0 0 0 1 5
1921 2 6 -8.4 0 0 0 0 1 5
1922 2 6.2 -8.4 0 0 0 0 1 5
1873 2 6.4 -8.6 0 0 0 0 1 5
1874 2 6.6 -8.6 0 0 0 0 1 5
1923 2 6.4 -8.4 0 0 0 0 1 5
1924 2 6.6 -8.4 0 0 0 0 1 5
1875 2 6.8 -8.6 0 0 0 0 1 5
1876 2 7 -8.6 0 0 0 0 1 5
1925 2 6.8 -8.4 0 0 0 0 1 5
1926 2 7 -8.4 0 0 0 0 1 5
1877 2 7.2 -8.6 0 0 0 0 1 5
1927 2 7.2 -8.4 0 0 0 0 1 5
1878 2 7.4 -8.6 0 0 0 0 1 5
1879 2 7.6 -8.6 0 0 0 0 1 5
1928 2 7.4 -8.4 0 0 0 0 1 5
1929 2 7.6 -8.4 0 0 0 0 1 5
1880 2 7.8 -8.6 0 0 0 0 1 5
1881 2 8 -8.6 0 0 0 0 1 5
1930 2 7.8 -8.4 0 0 0 0 1 5
1931 2 8 -8.4 0 0 0 0 1 5
1882 2 8.2 -8.6 0 0 0 0 1 5
1883 2 8.4 -8.6 0 0 0 0 1 5
1932 2 8.2 -8.4 0 0 0 0 1 5
1933 2 8.4 -8.4 0 0 0 0 1 5
1884 2 8.6 -8.6 0 0 0 0 1 5
1885 2 8.8 -8.6 0 0 0 0 1 5
1934 2 8.6 -8.4 0 0 0 0 1 5
1935 2 8.8 -8.4 0 0 0 0 1 5
1886 2 9 -8.6 0 0 0 0 1 5
1887 2 9.2 -8.6 0 0 0 0 1 5
1936 2 9 -8.4 0 0 0 0 1 5
1937 2 9.2 -8.4 0 0 0 0 1 5
1888 2 9.4 -8.6 0 0 0 0 1 5
1889 2 9.6 -8.6 0 0 0 0 1 5
1938 2 9.4 -8.4 0 0 0 0 1 5
1939 2 9.6 -8.4 0 0 0 0 1 5
1890 2 9.8 -8.6 0 0 0 0 1 5
1940 2 9.8 -8.4 0 0 0 0 1 5
1891 2 10 -8.6 0 0 0 0 1 5
1941 2 10 -8.4 0 0 0 0 1 5
1892 2 10.2 -8.6 0 0 0 0 1 5
1942 2 10.2 -8.4 0 0 0 0 1 5
1893 2 10.4 -8.6 0 0 0 0 1 5
1943 2 10.4 -8.4 0 0 0 0 1 5
1894 2 10.6 -8.6 0 0 0 0 1 5
1944 2 10.6 -8.4 0 0 0 0 1 5
1895 2 10.8 -8.6 0 0 0 0 1 5
1945 2 10.8 -8.4 0 0 0 0 1 5
1951 2 2 -8.2 0 0 0 0 1 5
2001 2 2 -8 0 0 0 0 1 5
1952 2 2.2 -8.2 0 0 0 0 1 5
1953 2 2.4 -8.2 0 0 0 0 1 5
2002 2 2.2 -8 0 0 0 0 1 5
2003 2 2.4 -8 0 0 0 0 1 5
1954 2 2.6 -8.2 0 0 0 0 1 5
1955 2 2.8 -8.2 0 0 0 0 1 5
2004 2 2.6 -8 0 0 0 0 1 5
2005 2 2.8 -8 0 0 0 0 1 5
1956 2 3 -8.2 0 0 0 0 1 5
1957 2 3.2 -8.2 0 0 0 0 1 5
2006 2 3 -8 0 0 0 0 1 5
2007 2 3.2 -8 0 0 0 0 1 5
1958 2 3.4 -8.2 0 0 0 0 1 5
1959 2 3.6 -8.2 0 0 0 0 1 5
2008 2 3.4 -8 0 0 0 0 1 5
2009 2 3.6 -8 0 0 0 0 1 5
1960 2 3.8 -8.2 0 0 0 0 1 5
2010 2 3.8 -8 0 0 0 0 1 5
1961 2 4 -8.2 0 0 0 0 1 5
2011 2 4 -8 0 0 0 0 1 5
1962 2 4.2 -8.2 0 0 0 0 1 5
2012 2 4.2 -8 0 0 0 0 1 5
1963 2 4.4 -8.2 0 0 0 0 1 5
1964 2 4.6 -8.2 0 0 0 0 1 5
2013 2 4.4 -8 0 0 0 0 1 5
2014 2 4.6 -8 0 0 0 0 1 5
1965 2 4.8 -8.2 0 0 0 0 1 5
1966 2 5 -8.2 0 0 0 0 1 5
2015 2 4.8 -8 0 0 0 0 1 5
2016 2 5 -8 0 0 0 0 1 5
1967 2 5.2 -8.2 0 0 0 0 1 5
1968 2 5.4 -8.2 0 0 0 0 1 5
2017 2 5.2 -8 0 0 0 0 1 5
2018 2 5.4 -8 0 0 0 0 1 5
1969 2 5.6 -8.2 0 0 0 0 1 5
1970 2 5.8 -8.2 0 0 0 0 1 5
2019 2 5.6 -8 0 0 0 0 1 5
2020 2 5.8 -8 0 0 0 0 1 5
1971 2 6 -8.2 0 0 0 0 1 5
1972 2 6.2 -8.2 0 0 0 0 1 5
2021 2 6 -8 0 0 0 0 1 5
2022 2 6.2 -8 0 0 0 0 1 5
1973 2 6.4 -8.2 0 0 0 0 1 5
1974 2 6.6 -8.2 0 0 0 0 1 5
2023 2 6.4 -8 0 0 0 0 1 5
2024 2 6.6 -8 0 0 0 0 1 5
1975 2 6.8 -8.2 0 0 0 0 1 5
1976 2 7 -8.2 0 0 0 0 1 5
2025 2 6.8 -8 0 0 0 0 1 5
2026 2 7 -8 0 0 0 0 1 5
1977 2 7.2 -8.2 0 0 0 0 1 5
2027 2 7.2 -8 0 0 0 0 1 5
1978 2 7.4 -8.2 0 0 0 0 1 5
1979 2 7.6 -8.2 0 0 0 0 1 5
2028 2 7.4 -8 0 0 0 0 1 5
2029 2 7.6 -8 0 0 0 0 1 5
1980 2 7.8 -8.2 0 0 0 0 1 5
1981 2 8 -8.2 0 0 0 0 1 5
2030 2 7.8 -8 0 0 0 0 1 5
2031 2 8 -8 0 0 0 0 1 5
1982 2 8.2 -8.2 0 0 0 0 1 5
1983 2 8.4 -8.2 0 0 0 0 1 5
2032 2 8.2 -8 0 0 0 0 1 5
2033 2 8.4 -8 0 0 0 0 1 5
1984 2 8.6 -8.2 0 0 0 0 1 5
1985 2 8.8 -8.2 0 0 0 0 1 5
2034 2 8.6 -8 0 0 0 0 1 5
2035 2 8.8 -8 0 0 0 0 1 5
1986 2 9 -8.2 0 0 0 0 1 5
1987 2 9.2 -8.2 0 0 0 0 1 5
2036 2 9 -8 0 0 0 0 1 5
2037 2 9.2 -8 0 0 0 0 1 5
1988 2 9.4 -8.2 0 0 0 0 1 5
1989 2 9.6 -8.2 0 0 0 0 1 5
2038 2 9.4 -8 0 0 0 0 1 5
2039 2 9.6 -8 0 0 0 0 1 5
1990 2 9.8 -8.2 0 0 0 0 1 5
2040 2 9.8 -8 0 0 0 0 1 5
1991 2 10 -8.2 0 0 0 0 1 5
2041 2 10 -8 0 0 0 0 1 5
1992 2 10.2 -8.2 0 0 0 0 1 5
2042 2 10.2 -8 0 0 0 0 1 5
1993 2 10.4 -8.2 0 0 0 0 1 5
2043 2 10.4 -8 0 0 0 0 1 5
1994 2 10.6 -8.2 0 0 0 0 1 5
2044 2 10.6 -8 0 0 0 0 1 5
1995 2 10.8 -8.2 0 0 0 0 1 5
2045 2 10.8 -8 0 0 0 0 1 5
2051 2 2 -7.8 0 0 0 0 1 5
2101 2 2 -7.6 0 0 0 0 1 5
2052 2 2.2 -7.8 0 0 0 0 1 5
2053 2 2.4 -7.8 0 0 0 0 1 5
2102 2 2.2 -7.6 0 0 0 0 1 5
2103 2 2.4 -7.6 0 0 0 0 1 5
2054 2 2.6 -7.8 0 0 0 0 1 5
2055 2 2.8 -7.8 0 0 0 0 1 5
2104 2 2.6 -7.6 0 0 0 0 1 5
2105 2 2.8 -7.6 0 0 0 0 1 5
2056 2 3 -7.8 0 0 0 0 1 5
2057 2 3.2 -7.8 0 0 0 0 1 5
2106 2 3 -7.6 0 0 0 0 1 5
2107 2 3.2 -7.6 0 0 0 0 1 5
2058 2 3.4 -7.8 0 0 0 0 1 5
2059 2 3.6 -7.8 0 0 0 0 1 5
2108 2 3.4 -7.6 0 0 0 0 1 5
2109 2 3.6 -7.6 0 0 0 0 1 5
2060 2 3.8 -7.8 0 0 0 0 1 5
2110 2 3.8 -7.6 0 0 0 0 1 5
2061 2 4 -7.8 0 0 0 0 1 5
2111 2 4 -7.6 0 0 0 0 1 5
2062 2 4.2 -7.8 0 0 0 0 1 5
2112 2 4.2 -7.6 0 0 0 0 1 5
2063 2 4.4 -7.8 0 0 0 0 1 5
2064 2 4.6 -7.8 0 0 0 0 1 5
2113 2 4.4 -7.6 0 0 0 0 1 5
2114 2 4.6 -7.6 0 0 0 0 1 5
2065 2 4.8 -7.8 0 0 0 0 1 5
2066 2 5 -7.8 0 0 0 0 1 5
2115 2 4.8 -7.6 0 0 0 0 1 5
2116 2 5 -7.6 0 0 0 0 1 5
2067 2 5.2 -7.8 0 0 0 0 1 5
2068 2 5.4 -7.8 0 0 0 0 1 5
2117 2 5.2 -7.6 0 0 0 0 1 5
2118 2 5.4 -7.6 0 0 0 0 1 5
2069 2 5.6 -7.8 0 0 0 0 1 5
2070 2 5.8 -7.8 0 0 0 0 1 5
2119 2 5.6 -7.6 0 0 0 0 1 5
2120 2 5.8 -7.6 0 0 0 0 1 5
2071 2 6 -7.8 0 0 0 0 1 5
2072 2 6.2 -7.8 0 0 0 0 1 5
2121 2 6 -7.6 0 0 0 0 1 5
2122 2 6.2 -7.6 0 0 0 0 1 5
2073 2 6.4 -7.8 0 0 0 0 1 5
2074 2 6.6 -7.8 0 0 0 0 1 5
2123 2 6.4 -7.6 0 0 0 0 1 5
2124 2 6.6 -7.6 0 0 0 0 1 5
2075 2 6.8 -7.8 0 0 0 0 1 5
2076 2 7 -7.8 0 0 0 0 1 5
2125 2 6.8 -7.6 0 0 0 0 1 5
2126 2 7 -7.6 0 0 0 0 1 5
2077 2 7.2 -7.8 0 0 0 0 1 5
2127 2 7.2 -7.6 0 0 0 0 1 5
2078 2 7.4 -7.8 0 0 0 0 1 5
2079 2 7.6 -7.8 0 0 0 0 1 5
2128 2 7.4 -7.6 0 0 0 0 1 5
2129 2 7.6 -7.6 0 0 0 0 1 5
2080 2 7.8 -7.8 0 0 0 0 1 5
2081 2 8 -7.8 0 0 0 0 1 5
2130 2 7.8 -7.6 0 0 0 0 1 5
2131 2 8 -7.6 0 0 0 0 1 5
2082 2 8.2 -7.8 0 0 0 0 1 5
2083 2 8.4 -7.8 0 0 0 0 1 5
2132 2 8.2 -7.6 0 0 0 0 1 5
2133 2 8.4 -7.6 0 0 0 0 1 5
2084 2 8.6 -7.8 0 0 0 0 1 5
2085 2 8.8 -7.8 0 0 0 0 1 5
2134 2 8.6 -7.6 0 0 0 0 1 5
2135 2 8.8 -7.6 0 0 0 0 1 5
2086 2 9 -7.8 0 0 0 0 1 5
2087 2 9.2 -7.8 0 0 0 0 1 5
2136 2 9 -7.6 0 0 0 0 1 5
2137 2 9.2 -7.6 0 0 0 0 1 5
2088 2 9.4 -7.8 0 0 0 0 1 5
2089 2 9.6 -7.8 0 0 0 0 1 5
2138 2 9.4 -7.6 0 0 0 0 1 5
2139 2 9.6 -7.6 0 0 0 0 1 5
2090 2 9.8 -7.8 0 0 0 0 1 5
2140 2 9.8 -7.6 0 0 0 0 1 5
2091 2 10 -7.8 0 0 0 0 1 5
2141 2 10 -7.6 0 0 0 0 1 5
2092 2 10.2 -7.8 0 0 0 0 1 5
2142 2 10.2 -7.6 0 0 0 0 1 5
2093 2 10.4 -7.8 0 0 0 0 1 5
2143 2 10.4 -7.6 0 0 0 0 1 5
2094 2 10.6 -7.8 0 0 0 0 1 5
2144 2 10.6 -7.6 0 0 0 0 1 5
2095 2 10.8 -7.8 0 0 0 0 1 5
2145 2 10.8 -7.6 0 0 0 0 1 5
2151 2 2 -7.4 0 0 0 0 0.997693 5
2201 2 2 -7.2 0 0 0 0 1.00036 5
2152 2 2.2 -7.4 0 0 0 0 0.998493 5
2153 2 2.4 -7.4 0 0 0 0 1.00527 5
2202 2 2.2 -7.2 0 0 0 0 0.999422 5
2203 2 2.4 -7.2 0 0 0 0 1.00171 5
2154 2 2.6 -7.4 0 0 0 0 0.998438 5
2155 2 2.8 -7.4 0 0 0 0 1.00046 5
2204 2 2.6 -7.2 0 0 0 0 0.999305 5
2205 2 2.8 -7.2 0 0 0 0 0.999395 5
2156 2 3 -7.4 0 0 0 0 0.998218 5
2157 2 3.2 -7.4 0 0 0 0 1.00877 5
2206 2 3 -7.2 0 0 0 0 1.0003 5
2207 2 3.2 -7.2 0 0 0 0 1.00223 5
2158 2 3.4 -7.4 0 0 0 0 0.998534 5
2159 2 3.6 -7.4 0 0 0 0 0.999111 5
2208 2 3.4 -7.2 0 0 0 0 1.00019 5
2209 2 3.6 -7.2 0 0 0 0 1.00079 5
2160 2 3.8 -7.4 0 0 0 0 0.999019 5
2210 2 3.8 -7.2 0 0 0 0 1.00767 5
2161 2 4 -7.4 0 0 0 0 1.02794 5
2211 2 4 -7.2 0 0 0 0 1.02086 5
2162 2 4.2 -7.4 0 0 0 0 1.02952 5
2212 2 4.2 -7.2 0 0 0 0 1.02794 5
2163 2 4.4 -7.4 0 0 0 0 1.02599 5
2164 2 4.6 -7.4 0 0 0 0 1.02228 5
2213 2 4.4 -7.2 0 0 0 0 1.02688 5
2214 2 4.6 -7.2 0 0 0 0 1.02326 5
2165 2 4.8 -7.4 0 0 0 0 1.02157 5
2166 2 5 -7.4 0 0 0 0 1.02191 5
2215 2 4.8 -7.2 0 0 0 0 1.02223 5
2216 2 5 -7.2 0 0 0 0 1.02241 5
2167 2 5.2 -7.4 0 0 0 0 1.022 5
2168 2 5.4 -7.4 0 0 0 0 1.022 5
2217 2 5.2 -7.2 0 0 0 0 1.02251 5
2218 2 5.4 -7.2 0 0 0 0 1.02242 5
2169 2 5.6 -7.4 0 0 0 0 1.0219 5
2170 2 5.8 -7.4 0 0 0 0 1.02189 5
2219 2 5.6 -7.2 0 0 0 0 1.02229 5
2220 2 5.8 -7.2 0 0 0 0 1.02221 5
2171 2 6 -7.4 0 0 0 0 1.02181 5
2172 2 6.2 -7.4 0 0 0 0 1.02184 5
2221 2 6 -7.2 0 0 0 0 1.02214 5
2222 2 6.2 -7.2 0 0 0 0 1.02217 5
2173 2 6.4 -7.4 0 0 0 0 1.02189 5
2174 2 6.6 -7.4 0 0 0 0 1.02192 5
2223 2 6.4 -7.2 0 0 0 0 1.02219 5
2224 2 6.6 -7.2 0 0 0 0 1.0222 5
2175 2 6.8 -7.4 0 0 0 0 1.02195 5
2176 2 7 -7.4 0 0 0 0 1.02181 5
2225 2 6.8 -7.2 0 0 0 0 1.02221 5
2226 2 7 -7.2 0 0 0 0 1.02224 5
2177 2 7.2 -7.4 0 0 0 0 1.02196 5
2227 2 7.2 -7.2 0 0 0 0 1.02236 5
2178 2 7.4 -7.4 0 0 0 0 1.02214 5
2179 2 7.6 -7.4 0 0 0 0 1.02222 5
2228 2 7.4 -7.2 0 0 0 0 1.02245 5
2229 2 7.6 -7.2 0 0 0 0 1.02249 5
2180 2 7.8 -7.4 0 0 0 0 1.02208 5
2181 2 8 -7.4 0 0 0 0 1.0222 5
2230 2 7.8 -7.2 0 0 0 0 1.0225 5
2231 2 8 -7.2 0 0 0 0 1.0226 5
2182 2 8.2 -7.4 0 0 0 0 1.02231 5
2183 2 8.4 -7.4 0 0 0 0 1.02238 5
2232 2 8.2 -7.2 0 0 0 0 1.02267 5
2233 2 8.4 -7.2 0 0 0 0 1.02271 5
2184 2 8.6 -7.4 0 0 0 0 1.02254 5
2185 2 8.8 -7.4 0 0 0 0 1.02255 5
2234 2 8.6 -7.2 0 0 0 0 1.02276 5
2235 2 8.8 -7.2 0 0 0 0 1.02279 5
2186 2 9 -7.4 0 0 0 0 1.02258 5
2187 2 9.2 -7.4 0 0 0 0 1.02246 5
2236 2 9 -7.2 0 0 0 0 1.0228 5
2237 2 9.2 -7.2 0 0 0 0 1.0228 5
2188 2 9.4 -7.4 0 0 0 0 1.02242 5
2189 2 9.6 -7.4 0 0 0 0 1.02245 5
2238 2 9.4 -7.2 0 0 0 0 1.0228 5
2239 2 9.6 -7.2 0 0 0 0 1.0228 5
2190 2 9.8 -7.4 0 0 0 0 1.02252 5
2240 2 9.8 -7.2 0 0 0 0 1.02282 5
2191 2 10 -7.4 0 0 0 0 1.02254 5
2241 2 10 -7.2 0 0 0 0 1.0228 5
2192 2 10.2 -7.4 0 0 0 0 1.02254 5
2242 2 10.2 -7.2 0 0 0 0 1.02278 5
2193 2 10.4 -7.4 0 0 0 0 1.02251 5
2243 2 10.4 -7.2 0 0 0 0 1.02274 5
2194 2 10.6 -7.4 0 0 0 0 1.02245 5
2244 2 10.6 -7.2 0 0 0 0 1.02269 5
2195 2 10.8 -7.4 0 0 0 0 1.02242 5
2245 2 10.8 -7.2 0 0 0 0 1.02265 5
14300 1 1.75361 -6.75746 0.02 0 -0.00490243 -0.00232211 1 2
14301 1 1.96339 -6.75211 0.02 0 -0.00300443 -0.000548177 1 2
14302 1 2.17119 -6.74445 0.02 0 -0.00308156 -0.000632367 1 2
14303 1 2.37388 -6.74367 0.02 0 -0.00288838 -0.000638296 1 2
2251 2 2 -7 0 0 0 0 1.00105 5
14304 1 2.57492 -6.76853 0.02 0 -0.00338517 -0.000542589 1 2
14305 1 2.77432 -6.73669 0.02 0 -0.00241471 -0.000460651 1 2
2252 2 2.2 -7 0 0 0 0 0.999712 5
2253 2 2.4 -7 0 0 0 0 1.00064 5
14306 1 2.96868 -6.75579 0.02 0 -0.00316315 -0.000493985 1 2
14307 1 3.16981 -6.74329 0.02 0 -0.00284536 -0.000456285 1 2
2254 2 2.6 -7 0 0 0 0 0.999711 5
2255 2 2.8 -7 0 0 0 0 0.999734 5
13615 1 3.60013 -6.75913 0.02 0 -0.00341075 -0.000135317 1 2
14308 1 3.37593 -6.78134 0.02 0 -0.00327205 -0.000315878 1 2
14309 1 3.36378 -6.59869 0.02 0 2.54396e-05 0.000381533 1 2
2256 2 3 -7 0 0 0 0 1.00021 5
2257 2 3.2 -7 0 0 0 0 1.0009 5
13616 1 3.81081 -6.77156 0.02 0 -0.00749479 9.19075e-06 1 2
13617 1 4.00037 -6.74279 0.0172841 0.000831547 -0.0108636 0.00332619 1.01755 0
2258 2 3.4 -7 0 0 0 0 1.00038 5
2259 2 3.6 -7 0 0 0 0 1.00197 5
2260 2 3.8 -7 0 0 0 0 1.00905 5
13618 1 4.01228 -6.75753 0.00739247 0.00227202 0.000262765 0.000497181 1.02761 0
13619 1 4.16825 -6.78315 0.00553478 0.000201616 0.000450375 8.62741e-05 1.03324 0
13620 1 4.44542 -6.54177 0.0106193 0.00193169 4.44588e-05 1.39618e-05 1.02576 0
13621 1 4.31379 -6.61728 0.00924449 0.0021562 9.9563e-05 6.98998e-05 1.02876 0
13622 1 4.35516 -6.77737 0.00527075 0.000113805 0.000137681 3.22624e-05 1.02918 0
2261 2 4 -7 0 0 0 0 1.01886 5
2262 2 4.2 -7 0 0 0 0 1.02613 5
13623 1 4.5192 -6.6784 0.00733551 0.000809257 3.23635e-05 -1.71669e-06 1.02407 0
12903 1 4.62999 -6.77944 0.00431402 0.000123247 2.0801e-05 -4.65396e-06 1.02373 0
2263 2 4.4 -7 0 0 0 0 1.02718 5
2264 2 4.6 -7 0 0 0 0 1.0239 5
12905 1 4.79247 -6.70942 0.00492133 0.000387807 1.37627e-05 -3.14067e-06 1.02304 0
12907 1 4.92974 -6.76535 0.00319341 -6.57034e-05 6.62674e-06 -1.9941e-06 1.02363 0
12909 1 5.0465 -6.61472 0.00573484 0.000519438 2.25157e-06 -5.45175e-07 1.02296 0
12911 1 5.14939 -6.67477 0.00415248 0.0002449 -3.97866e-07 -5.8919e-07 1.02287 0
2265 2 4.8 -7 0 0 0 0 1.02271 5
2266 2 5 -7 0 0 0 0 1.02281 5
12207 1 5.33068 -6.62665 0.00457806 0.000304982 -3.86736e-06 -8.52348e-07 1.02269 0
12210 1 5.21846 -6.79339 0.0022097 -0.000202219 2.84371e-07 -4.15797e-07 1.02358 0
12212 1 5.51862 -6.60492 0.0045153 0.000270217 -4.45449e-06 -1.18784e-06 1.02249 0
11540 1 5.4304 -6.77735 0.0021372 -0.000164603 -1.45176e-06 -3.45191e-07 1.02322 0
2267 2 5.2 -7 0 0 0 0 1.0229 5
2268 2 5.4 -7 0 0 0 0 1.02278 5
12214 1 5.7057 -6.61332 0.00400558 0.000187039 -2.62823e-06 -1.59422e-06 1.02244 0
11552 1 5.62916 -6.7787 0.00192029 -0.000190445 -9.34322e-07 -6.63956e-07 1.0231 0
10855 1 5.81365 -6.72639 0.00233925 -8.15883e-05 -2.13853e-07 -1.24408e-06 1.02273 0
10858 1 5.96494 -6.74 0.0019891 -0.000152942 8.95089e-07 -1.53587e-06 1.0228 0
2269 2 5.6 -7 0 0 0 0 1.02262 5
2270 2 5.8 -7 0 0 0 0 1.02249 5
10169 1 6.12799 -6.7647 0.00163513 -0.000200193 1.86342e-06 -1.79979e-06 1.02291 0
10172 1 6.29924 -6.75493 0.00161821 -0.000165212 2.31289e-06 -2.09777e-06 1.02281 0
2271 2 6 -7 0 0 0 0 1.02243 5
2272 2 6.2 -7 0 0 0 0 1.02246 5
11543 1 6.11151 -6.60474 0.00348477 0.000156217 1.09735e-06 -3.03042e-06 1.02232 0
3109 1 6.48118 -6.76364 0.00145708 -0.000181554 2.47103e-06 -2.28307e-06 1.02284 0
3113 1 6.66745 -6.75653 0.00142488 -0.000162855 2.31505e-06 -2.4034e-06 1.02282 0
2273 2 6.4 -7 0 0 0 0 1.02246 5
2274 2 6.6 -7 0 0 0 0 1.02246 5
3115 1 6.84869 -6.75084 0.0013647 -0.000144932 1.83512e-06 -2.41572e-06 1.02276 0
3116 1 7.03553 -6.68444 0.00183086 2.33534e-05 5.52375e-07 -2.70746e-06 1.02238 0
3119 1 7.12781 -6.81785 0.000896087 -0.000279294 1.01624e-06 -1.76298e-06 1.02306 0
2275 2 6.8 -7 0 0 0 0 1.02246 5
2276 2 7 -7 0 0 0 0 1.02253 5
3117 1 7.308 -6.6782 0.00174111 4.86152e-05 -1.45778e-06 -2.12349e-06 1.02244 0
3118 1 7.56067 -6.63152 0.00209157 8.13876e-05 -4.21242e-06 -1.46596e-06 1.02246 0
3121 1 7.43315 -6.7894 0.000970919 -0.000194117 -8.98293e-07 -1.04971e-06 1.02305 0
2277 2 7.2 -7 0 0 0 0 1.02264 5
2278 2 7.4 -7 0 0 0 0 1.0227 5
2279 2 7.6 -7 0 0 0 0 1.02273 5
3123 1 7.65788 -6.76845 0.00104864 -0.000169835 -2.29874e-06 -4.64565e-07 1.02304 0
3120 1 7.86396 -6.65952 0.00178498 5.42013e-05 -5.34158e-06 -4.30643e-07 1.02253 0
3122 1 8.0373 -6.61899 0.00210417 8.05463e-05 -6.94411e-06 -1.06253e-07 1.02257 0
3125 1 7.93456 -6.81839 0.000805777 -0.000288239 -2.71845e-06 3.57341e-07 1.0233 0
2280 2 7.8 -7 0 0 0 0 1.02279 5
2281 2 8 -7 0 0 0 0 1.02288 5
3126 1 8.16333 -6.72478 0.00127613 -7.40756e-05 -4.77269e-06 3.25837e-07 1.02295 0
3127 1 8.33831 -6.76979 0.000994904 -0.000206446 -3.97674e-06 5.66126e-07 1.0233 0
2282 2 8.2 -7 0 0 0 0 1.0229 5
2283 2 8.4 -7 0 0 0 0 1.02295 5
3128 1 8.52764 -6.74336 0.00117546 -0.000151473 -4.33813e-06 5.51178e-07 1.02322 0
3129 1 8.703 -6.74528 0.0011646 -0.000177223 -3.97974e-06 5.18131e-07 1.0233 0
3130 1 8.87445 -6.73194 0.00126244 -0.000151388 -3.73652e-06 4.32805e-07 1.02324 0
2284 2 8.6 -7 0 0 0 0 1.02298 5
2285 2 8.8 -7 0 0 0 0 1.02299 5
3131 1 9.04437 -6.73622 0.00122725 -0.000161254 -3.1099e-06 3.26792e-07 1.02327 0
3132 1 9.21818 -6.76468 0.00107459 -0.000240784 -2.32794e-06 2.68417e-07 1.02347 0
2286 2 9 -7 0 0 0 0 1.02301 5
2287 2 9.2 -7 0 0 0 0 1.02305 5
3133 1 9.4019 -6.69875 0.00150013 -5.90035e-05 -2.33861e-06 -5.38236e-08 1.02303 0
3134 1 9.54925 -6.76616 0.0010618 -0.000237115 -1.47359e-06 8.49261e-08 1.02344 0
3135 1 9.72963 -6.72266 0.0013412 -0.000119894 -1.34658e-06 -6.64092e-08 1.02317 0
2288 2 9.4 -7 0 0 0 0 1.02304 5
2289 2 9.6 -7 0 0 0 0 1.02304 5
3136 1 9.90513 -6.75798 0.00112757 -0.000212497 -9.76924e-07 4.51796e-08 1.02337 0
3137 1 10.1034 -6.75252 0.00117095 -0.000191753 -7.71372e-07 7.14182e-08 1.02332 0
2290 2 9.8 -7 0 0 0 0 1.02304 5
2291 2 10 -7 0 0 0 0 1.02303 5
3138 1 10.2962 -6.75391 0.00117052 -0.000197655 -7.16713e-07 1.52493e-07 1.02329 0
3139 1 10.489 -6.74251 0.00125049 -0.000175535 -6.01081e-07 2.30231e-07 1.02319 0
2292 2 10.2 -7 0 0 0 0 1.023 5
2293 2 10.4 -7 0 0 0 0 1.02296 5
3140 1 10.6768 -6.74948 0.00120906 -0.000202881 -6.30919e-07 3.64724e-07 1.0232 0
3141 1 10.869 -6.74294 0.0012592 -0.000192024 -5.21699e-07 4.65809e-07 1.02313 0
2294 2 10.6 -7 0 0 0 0 1.02291 5
2295 2 10.8 -7 0 0 0 0 1.02286 5
14310 1 1.62941 -6.17885 0.02 0 0 0 1 2
14311 1 1.67285 -6.37417 0.02 0 -6.02695e-09 -6.26659e-10 1 2
14312 1 1.72009 -6.56601 0.02 0 -4.74866e-05 -1.12177e-05 1 2
14313 1 1.91372 -6.56694 0.02 0 0.000512239 0.000809575 1 2
14314 1 1.87087 -6.37597 0.02 0 4.9891e-05 0.000107382 1 2
14315 1 1.82728 -6.18372 0.02 0 7.88377e-07 2.29285e-06 1 2
14317 1 2.03224 -6.18814 0.02 0 3.21825e-06 9.91342e-06 1 2
14316 1 2.06925 -6.37632 0.02 0 8.25393e-05 0.000155757 1 2
14318 1 2.11015 -6.56434 0.02 0 0.000277519 0.000668818 1 2
14319 1 2.31281 -6.56357 0.02 0 0.000237526 0.000606648 1 2
14320 1 2.26902 -6.37778 0.02 0 0.000110855 0.000184149 1 2
14321 1 2.24487 -6.19283 0.02 0 7.20458e-06 1.73949e-05 1 2
14324 1 2.46373 -6.21069 0.02 0 1.06066e-05 2.17752e-05 1 2
14322 1 2.52389 -6.57858 0.02 0 0.000178645 0.000555787 1 2
14323 1 2.47033 -6.39651 0.02 0 0.000138541 0.000216238 1 2
14325 1 2.73003 -6.56441 0.02 0 0.000166018 0.000468715 1 2
14326 1 2.67255 -6.39183 0.02 0 0.000128656 0.000191291 1 2
14328 1 2.69279 -6.21688 0.02 0 1.10634e-05 2.09805e-05 1 2
14327 1 2.88293 -6.39489 0.02 0 0.000125752 0.00020543 1 2
14329 1 2.94537 -6.56583 0.02 0 0.000182457 0.000460246 1 2
14330 1 2.94783 -6.23392 0.02 0 1.40016e-05 2.35967e-05 1 2
14331 1 3.14457 -6.56739 0.02 0 0.000150028 0.000451395 1 2
14332 1 3.13572 -6.39641 0.02 0 0.000126152 0.000160003 1 2
14334 1 3.17029 -6.22574 0.02 0 1.19606e-05 2.37207e-05 1 2
14333 1 3.3538 -6.42363 0.02 0 0.000158924 0.000201447 1 2
14335 1 3.38456 -6.23943 0.02 0 1.41791e-05 2.75535e-05 1 2
14336 1 3.59867 -6.5886 0.02 0 -0.000499524 0.000372353 1 2
14337 1 3.55843 -6.42354 0.02 0 3.95914e-05 0.000219582 1 2
14338 1 3.59615 -6.24453 0.02 0 -0.000120431 3.24017e-05 1 2
13626 1 3.81604 -6.58618 0.02 0 -0.00303346 0.00102555 1 2
13627 1 3.77558 -6.41015 0.02 0 -0.00158664 0.000584063 1 2
13628 1 3.80604 -6.22782 0.02 0 -0.00180631 0.0001688 1 2
13630 1 3.99969 -6.55373 0.02 0 -0.00359949 0.00103058 1.01394 2
13631 1 3.99562 -6.38041 0.02 0 -0.00535422 0.00126452 1 2
13633 1 3.99963 -6.20254 0.02 0 -0.00530384 0.000529547 1.00873 2
13629 1 4.01325 -6.54386 0.0128153 0.00275484 -0.000124875 -5.18269e-05 1.02108 0
13632 1 4.10398 -6.37012 0.0127215 0.00236567 9.04708e-05 -5.73107e-05 1.02603 0
13634 1 4.09953 -6.15085 0.0123677 0.00175213 0.000289377 0.000119103 1.02459 0
13636 1 4.19568 -6.54717 0.0109283 0.00332539 -1.59802e-05 9.59101e-05 1.0303 0
13637 1 4.21926 -6.28934 0.0115983 0.00283091 0.00013139 -3.94843e-06 1.02912 0
13639 1 4.25487 -6.11069 0.0117705 0.00277871 9.81082e-05 6.68934e-05 1.02791 0
13635 1 4.32699 -6.41254 0.0116082 0.00303758 5.4204e-05 1.44875e-05 1.02868 0
13638 1 4.37873 -6.22568 0.0128544 0.00318589 5.9139e-05 3.2827e-05 1.02656 0
13624 1 4.72369 -6.57636 0.00832133 0.00108619 2.25934e-05 8.57768e-07 1.0231 0
13640 1 4.50958 -6.37402 0.0124378 0.00254513 3.38055e-05 1.82143e-05 1.02464 0
13642 1 4.53101 -6.21275 0.0133165 0.00298537 2.24033e-05 2.20512e-05 1.02403 0
13641 1 4.61036 -6.50239 0.0104161 0.00174288 3.25032e-05 8.67633e-06 1.02369 0
13643 1 4.67958 -6.18208 0.0130063 0.0028657 1.28826e-05 1.36558e-05 1.0234 0
13644 1 4.70879 -6.35388 0.0115949 0.00218994 1.93866e-05 9.55337e-06 1.02349 0
13646 1 4.80963 -6.11963 0.0128138 0.00281363 2.66021e-06 7.01575e-06 1.02341 0
13645 1 4.86396 -6.32597 0.0109632 0.00195013 6.64809e-06 3.63001e-06 1.02347 0
13625 1 4.8646 -6.52224 0.00838837 0.00113325 1.15841e-05 9.65045e-07 1.02321 0
13647 1 4.95755 -6.16298 0.0119226 0.00237101 -4.17291e-06 1.23651e-06 1.02349 0
13649 1 5.0374 -6.3214 0.0101334 0.00161256 -3.89098e-06 -3.41694e-07 1.02343 0
12904 1 5.0079 -6.4788 0.008269 0.00106972 1.51136e-06 -1.13335e-07 1.02328 0
12916 1 5.14825 -6.20746 0.0108056 0.00184683 -1.06716e-05 -2.83492e-06 1.02335 0
12920 1 5.18077 -6.45263 0.0078798 0.000939015 -5.81699e-06 -1.36637e-06 1.02313 0
12915 1 5.29827 -6.18794 0.0104508 0.00166072 -1.37584e-05 -4.91411e-06 1.02318 0
12906 1 5.30335 -6.35888 0.00863502 0.00109099 -1.00766e-05 -2.95855e-06 1.02307 0
12921 1 5.46715 -6.13759 0.0103437 0.00158945 -1.47321e-05 -6.90274e-06 1.02304 0
12908 1 5.40101 -6.48453 0.00667655 0.000636016 -7.57327e-06 -2.11332e-06 1.02274 0
12926 1 5.46676 -6.30386 0.00869818 0.00107444 -1.13955e-05 -4.59882e-06 1.02296 0
12910 1 5.61104 -6.34467 0.00778033 0.000822865 -9.16183e-06 -4.6071e-06 1.02281 0