ITEM: TIMESTEP
79000
ITEM: NUMBER OF ATOMS
10493
ITEM: BOX BOUNDS ff ff pp
0.0000000000000000e+00 2.2000000000000000e+01
-1.0000000000000000e+01 1.0000000000000000e+01
-2.0000000000000000e-02 2.0000000000000000e-02
ITEM: ATOMS id type x y vx vy fx fy c_den c_phase
1501 2 2 -10 0 0 0 0 1 4
1551 2 2 -9.8 0 0 0 0 1 4
1601 2 2 -9.6 0 0 0 0 1 4
1502 2 2.2 -10 0 0 0 0 1 4
1503 2 2.4 -10 0 0 0 0 1 4
1552 2 2.2 -9.8 0 0 0 0 1 4
1553 2 2.4 -9.8 0 0 0 0 1 4
1602 2 2.2 -9.6 0 0 0 0 1 4
1603 2 2.4 -9.6 0 0 0 0 1 4
1504 2 2.6 -10 0 0 0 0 1 4
1505 2 2.8 -10 0 0 0 0 1 4
1554 2 2.6 -9.8 0 0 0 0 1 4
1555 2 2.8 -9.8 0 0 0 0 1 4
1604 2 2.6 -9.6 0 0 0 0 1 4
1605 2 2.8 -9.6 0 0 0 0 1 4
1506 2 3 -10 0 0 0 0 1 4
1507 2 3.2 -10 0 0 0 0 1 4
1556 2 3 -9.8 0 0 0 0 1 4
1557 2 3.2 -9.8 0 0 0 0 1 4
1606 2 3 -9.6 0 0 0 0 1 4
1607 2 3.2 -9.6 0 0 0 0 1 4
1508 2 3.4 -10 0 0 0 0 1 4
1509 2 3.6 -10 0 0 0 0 1 4
1558 2 3.4 -9.8 0 0 0 0 1 4
1559 2 3.6 -9.8 0 0 0 0 1 4
1608 2 3.4 -9.6 0 0 0 0 1 4
1609 2 3.6 -9.6 0 0 0 0 1 4
1510 2 3.8 -10 0 0 0 0 1 4
1560 2 3.8 -9.8 0 0 0 0 1 4
1610 2 3.8 -9.6 0 0 0 0 1 4
1511 2 4 -10 0 0 0 0 1 4
1561 2 4 -9.8 0 0 0 0 1 4
1611 2 4 -9.6 0 0 0 0 1 4
1512 2 4.2 -10 0 0 0 0 1 4
1562 2 4.2 -9.8 0 0 0 0 1 4
1612 2 4.2 -9.6 0 0 0 0 1 4
1513 2 4.4 -10 0 0 0 0 1 4
1514 2 4.6 -10 0 0 0 0 1 4
1563 2 4.4 -9.8 0 0 0 0 1 4
1564 2 4.6 -9.8 0 0 0 0 1 4
1613 2 4.4 -9.6 0 0 0 0 1 4
1614 2 4.6 -9.6 0 0 0 0 1 4
1515 2 4.8 -10 0 0 0 0 1 4
1516 2 5 -10 0 0 0 0 1 4
1565 2 4.8 -9.8 0 0 0 0 1 4
1566 2 5 -9.8 0 0 0 0 1 4
1615 2 4.8 -9.6 0 0 0 0 1 4
1616 2 5 -9.6 0 0 0 0 1 4
1517 2 5.2 -10 0 0 0 0 1 4
1518 2 5.4 -10 0 0 0 0 1 4
1567 2 5.2 -9.8 0 0 0 0 1 4
1568 2 5.4 -9.8 0 0 0 0 1 4
1617 2 5.2 -9.6 0 0 0 0 1 4
1618 2 5.4 -9.6 0 0 0 0 1 4
1519 2 5.6 -10 0 0 0 0 1 4
1520 2 5.8 -10 0 0 0 0 1 4
1569 2 5.6 -9.8 0 0 0 0 1 4
1570 2 5.8 -9.8 0 0 0 0 1 4
1619 2 5.6 -9.6 0 0 0 0 1 4
1620 2 5.8 -9.6 0 0 0 0 1 4
1521 2 6 -10 0 0 0 0 1 4
1522 2 6.2 -10 0 0 0 0 1 4
1571 2 6 -9.8 0 0 0 0 1 4
1572 2 6.2 -9.8 0 0 0 0 1 4
1621 2 6 -9.6 0 0 0 0 1 4
1622 2 6.2 -9.6 0 0 0 0 1 4
1523 2 6.4 -10 0 0 0 0 1 4
1524 2 6.6 -10 0 0 0 0 1 4
1573 2 6.4 -9.8 0 0 0 0 1 4
1574 2 6.6 -9.8 0 0 0 0 1 4
1623 2 6.4 -9.6 0 0 0 0 1 4
1624 2 6.6 -9.6 0 0 0 0 1 4
1525 2 6.8 -10 0 0 0 0 1 4
1526 2 7 -10 0 0 0 0 1 4
1575 2 6.8 -9.8 0 0 0 0 1 4
1576 2 7 -9.8 0 0 0 0 1 4
1625 2 6.8 -9.6 0 0 0 0 1 4
1626 2 7 -9.6 0 0 0 0 1 4
1527 2 7.2 -10 0 0 0 0 1 4
1577 2 7.2 -9.8 0 0 0 0 1 4
1627 2 7.2 -9.6 0 0 0 0 1 4
1528 2 7.4 -10 0 0 0 0 1 4
1529 2 7.6 -10 0 0 0 0 1 4
1578 2 7.4 -9.8 0 0 0 0 1 4
1579 2 7.6 -9.8 0 0 0 0 1 4
1628 2 7.4 -9.6 0 0 0 0 1 4
1629 2 7.6 -9.6 0 0 0 0 1 4
1530 2 7.8 -10 0 0 0 0 1 4
1531 2 8 -10 0 0 0 0 1 4
1580 2 7.8 -9.8 0 0 0 0 1 4
1581 2 8 -9.8 0 0 0 0 1 4
1630 2 7.8 -9.6 0 0 0 0 1 4
1631 2 8 -9.6 0 0 0 0 1 4
1532 2 8.2 -10 0 0 0 0 1 4
1533 2 8.4 -10 0 0 0 0 1 4
1582 2 8.2 -9.8 0 0 0 0 1 4
1583 2 8.4 -9.8 0 0 0 0 1 4
1632 2 8.2 -9.6 0 0 0 0 1 4
1633 2 8.4 -9.6 0 0 0 0 1 4
1534 2 8.6 -10 0 0 0 0 1 4
1535 2 8.8 -10 0 0 0 0 1 4
1584 2 8.6 -9.8 0 0 0 0 1 4
1585 2 8.8 -9.8 0 0 0 0 1 4
1634 2 8.6 -9.6 0 0 0 0 1 4
1635 2 8.8 -9.6 0 0 0 0 1 4
1536 2 9 -10 0 0 0 0 1 4
1537 2 9.2 -10 0 0 0 0 1 4
1586 2 9 -9.8 0 0 0 0 1 4
1587 2 9.2 -9.8 0 0 0 0 1 4
1636 2 9 -9.6 0 0 0 0 1 4
1637 2 9.2 -9.6 0 0 0 0 1 4
1538 2 9.4 -10 0 0 0 0 1 4
1539 2 9.6 -10 0 0 0 0 1 4
1588 2 9.4 -9.8 0 0 0 0 1 4
1589 2 9.6 -9.8 0 0 0 0 1 4
1638 2 9.4 -9.6 0 0 0 0 1 4
1639 2 9.6 -9.6 0 0 0 0 1 4
1540 2 9.8 -10 0 0 0 0 1 4
1590 2 9.8 -9.8 0 0 0 0 1 4
1640 2 9.8 -9.6 0 0 0 0 1 4
1541 2 10 -10 0 0 0 0 1 4
1591 2 10 -9.8 0 0 0 0 1 4
1641 2 10 -9.6 0 0 0 0 1 4
1542 2 10.2 -10 0 0 0 0 1 4
1592 2 10.2 -9.8 0 0 0 0 1 4
1642 2 10.2 -9.6 0 0 0 0 1 4
1543 2 10.4 -10 0 0 0 0 1 4
1593 2 10.4 -9.8 0 0 0 0 1 4
1643 2 10.4 -9.6 0 0 0 0 1 4
1544 2 10.6 -10 0 0 0 0 1 4
1594 2 10.6 -9.8 0 0 0 0 1 4
1644 2 10.6 -9.6 0 0 0 0 1 4
1545 2 10.8 -10 0 0 0 0 1 4
1595 2 10.8 -9.8 0 0 0 0 1 4
1645 2 10.8 -9.6 0 0 0 0 1 4
1651 2 2 -9.4 0 0 0 0 1 4
1701 2 2 -9.2 0 0 0 0 1 4
1652 2 2.2 -9.4 0 0 0 0 1 4
1653 2 2.4 -9.4 0 0 0 0 1 4
1702 2 2.2 -9.2 0 0 0 0 1 4
1703 2 2.4 -9.2 0 0 0 0 1 4
1654 2 2.6 -9.4 0 0 0 0 1 4
1655 2 2.8 -9.4 0 0 0 0 1 4
1704 2 2.6 -9.2 0 0 0 0 1 4
1705 2 2.8 -9.2 0 0 0 0 1 4
1656 2 3 -9.4 0 0 0 0 1 4
1657 2 3.2 -9.4 0 0 0 0 1 4
1706 2 3 -9.2 0 0 0 0 1 4
1707 2 3.2 -9.2 0 0 0 0 1 4
1658 2 3.4 -9.4 0 0 0 0 1 4
1659 2 3.6 -9.4 0 0 0 0 1 4
1708 2 3.4 -9.2 0 0 0 0 1 4
1709 2 3.6 -9.2 0 0 0 0 1 4
1660 2 3.8 -9.4 0 0 0 0 1 4
1710 2 3.8 -9.2 0 0 0 0 1 4
1661 2 4 -9.4 0 0 0 0 1 4
1711 2 4 -9.2 0 0 0 0 1 4
1662 2 4.2 -9.4 0 0 0 0 1 4
1712 2 4.2 -9.2 0 0 0 0 1 4
1663 2 4.4 -9.4 0 0 0 0 1 4
1664 2 4.6 -9.4 0 0 0 0 1 4
1713 2 4.4 -9.2 0 0 0 0 1 4
1714 2 4.6 -9.2 0 0 0 0 1 4
1665 2 4.8 -9.4 0 0 0 0 1 4
1666 2 5 -9.4 0 0 0 0 1 4
1715 2 4.8 -9.2 0 0 0 0 1 4
1716 2 5 -9.2 0 0 0 0 1 4
1667 2 5.2 -9.4 0 0 0 0 1 4
1668 2 5.4 -9.4 0 0 0 0 1 4
1717 2 5.2 -9.2 0 0 0 0 1 4
1718 2 5.4 -9.2 0 0 0 0 1 4
1669 2 5.6 -9.4 0 0 0 0 1 4
1670 2 5.8 -9.4 0 0 0 0 1 4
1719 2 5.6 -9.2 0 0 0 0 1 4
1720 2 5.8 -9.2 0 0 0 0 1 4
1671 2 6 -9.4 0 0 0 0 1 4
1672 2 6.2 -9.4 0 0 0 0 1 4
1721 2 6 -9.2 0 0 0 0 1 4
1722 2 6.2 -9.2 0 0 0 0 1 4
1673 2 6.4 -9.4 0 0 0 0 1 4
1674 2 6.6 -9.4 0 0 0 0 1 4
1723 2 6.4 -9.2 0 0 0 0 1 4
1724 2 6.6 -9.2 0 0 0 0 1 4
1675 2 6.8 -9.4 0 0 0 0 1 4
1676 2 7 -9.4 0 0 0 0 1 4
1725 2 6.8 -9.2 0 0 0 0 1 4
1726 2 7 -9.2 0 0 0 0 1 4
1677 2 7.2 -9.4 0 0 0 0 1 4
1727 2 7.2 -9.2 0 0 0 0 1 4
1678 2 7.4 -9.4 0 0 0 0 1 4
1679 2 7.6 -9.4 0 0 0 0 1 4
1728 2 7.4 -9.2 0 0 0 0 1 4
1729 2 7.6 -9.2 0 0 0 0 1 4
1680 2 7.8 -9.4 0 0 0 0 1 4
1681 2 8 -9.4 0 0 0 0 1 4
1730 2 7.8 -9.2 0 0 0 0 1 4
1731 2 8 -9.2 0 0 0 0 1 4
1682 2 8.2 -9.4 0 0 0 0 1 4
1683 2 8.4 -9.4 0 0 0 0 1 4
1732 2 8.2 -9.2 0 0 0 0 1 4
1733 2 8.4 -9.2 0 0 0 0 1 4
1684 2 8.6 -9.4 0 0 0 0 1 4
1685 2 8.8 -9.4 0 0 0 0 1 4
1734 2 8.6 -9.2 0 0 0 0 1 4
1735 2 8.8 -9.2 0 0 0 0 1 4
1686 2 9 -9.4 0 0 0 0 1 4
1687 2 9.2 -9.4 0 0 0 0 1 4
1736 2 9 -9.2 0 0 0 0 1 4
1737 2 9.2 -9.2 0 0 0 0 1 4
1688 2 9.4 -9.4 0 0 0 0 1 4
1689 2 9.6 -9.4 0 0 0 0 1 4
1738 2 9.4 -9.2 0 0 0 0 1 4
1739 2 9.6 -9.2 0 0 0 0 1 4
1690 2 9.8 -9.4 0 0 0 0 1 4
1740 2 9.8 -9.2 0 0 0 0 1 4
1691 2 10 -9.4 0 0 0 0 1 4
1741 2 10 -9.2 0 0 0 0 1 4
1692 2 10.2 -9.4 0 0 0 0 1 4
1742 2 10.2 -9.2 0 0 0 0 1 4
1693 2 10.4 -9.4 0 0 0 0 1 4
1743 2 10.4 -9.2 0 0 0 0 1 4
1694 2 10.6 -9.4 0 0 0 0 1 4
1744 2 10.6 -9.2 0 0 0 0 1 4
1695 2 10.8 -9.4 0 0 0 0 1 4
1745 2 10.8 -9.2 0 0 0 0 1 4
1751 2 2 -9 0 0 0 0 1 4
1801 2 2 -8.8 0 0 0 0 1 4
1752 2 2.2 -9 0 0 0 0 1 4
1753 2 2.4 -9 0 0 0 0 1 4
1802 2 2.2 -8.8 0 0 0 0 1 4
1803 2 2.4 -8.8 0 0 0 0 1 4
1754 2 2.6 -9 0 0 0 0 1 4
1755 2 2.8 -9 0 0 0 0 1 4
1804 2 2.6 -8.8 0 0 0 0 1 4
1805 2 2.8 -8.8 0 0 0 0 1 4
1756 2 3 -9 0 0 0 0 1 4
1757 2 3.2 -9 0 0 0 0 1 4
1806 2 3 -8.8 0 0 0 0 1 4
1807 2 3.2 -8.8 0 0 0 0 1 4
1758 2 3.4 -9 0 0 0 0 1 4
1759 2 3.6 -9 0 0 0 0 1 4
1808 2 3.4 -8.8 0 0 0 0 1 4
1809 2 3.6 -8.8 0 0 0 0 1 4
1760 2 3.8 -9 0 0 0 0 1 4
1810 2 3.8 -8.8 0 0 0 0 1 4
1761 2 4 -9 0 0 0 0 1 4
1811 2 4 -8.8 0 0 0 0 1 4
1762 2 4.2 -9 0 0 0 0 1 4
1812 2 4.2 -8.8 0 0 0 0 1 4
1763 2 4.4 -9 0 0 0 0 1 4
1764 2 4.6 -9 0 0 0 0 1 4
1813 2 4.4 -8.8 0 0 0 0 1 4
1814 2 4.6 -8.8 0 0 0 0 1 4
1765 2 4.8 -9 0 0 0 0 1 4
1766 2 5 -9 0 0 0 0 1 4
1815 2 4.8 -8.8 0 0 0 0 1 4
1816 2 5 -8.8 0 0 0 0 1 4
1767 2 5.2 -9 0 0 0 0 1 4
1768 2 5.4 -9 0 0 0 0 1 4
1817 2 5.2 -8.8 0 0 0 0 1 4
1818 2 5.4 -8.8 0 0 0 0 1 4
1769 2 5.6 -9 0 0 0 0 1 4
1770 2 5.8 -9 0 0 0 0 1 4
1819 2 5.6 -8.8 0 0 0 0 1 4
1820 2 5.8 -8.8 0 0 0 0 1 4
1771 2 6 -9 0 0 0 0 1 4
1772 2 6.2 -9 0 0 0 0 1 4
1821 2 6 -8.8 0 0 0 0 1 4
1822 2 6.2 -8.8 0 0 0 0 1 4
1773 2 6.4 -9 0 0 0 0 1 4
1774 2 6.6 -9 0 0 0 0 1 4
1823 2 6.4 -8.8 0 0 0 0 1 4
1824 2 6.6 -8.8 0 0 0 0 1 4
1775 2 6.8 -9 0 0 0 0 1 4
1776 2 7 -9 0 0 0 0 1 4
1825 2 6.8 -8.8 0 0 0 0 1 4
1826 2 7 -8.8 0 0 0 0 1 4
1777 2 7.2 -9 0 0 0 0 1 4
1827 2 7.2 -8.8 0 0 0 0 1 4
1778 2 7.4 -9 0 0 0 0 1 4
1779 2 7.6 -9 0 0 0 0 1 4
1828 2 7.4 -8.8 0 0 0 0 1 4
1829 2 7.6 -8.8 0 0 0 0 1 4
1780 2 7.8 -9 0 0 0 0 1 4
1781 2 8 -9 0 0 0 0 1 4
1830 2 7.8 -8.8 0 0 0 0 1 4
1831 2 8 -8.8 0 0 0 0 1 4
1782 2 8.2 -9 0 0 0 0 1 4
1783 2 8.4 -9 0 0 0 0 1 4
1832 2 8.2 -8.8 0 0 0 0 1 4
1833 2 8.4 -8.8 0 0 0 0 1 4
1784 2 8.6 -9 0 0 0 0 1 4
1785 2 8.8 -9 0 0 0 0 1 4
1834 2 8.6 -8.8 0 0 0 0 1 4
1835 2 8.8 -8.8 0 0 0 0 1 4
1786 2 9 -9 0 0 0 0 1 4
1787 2 9.2 -9 0 0 0 0 1 4
1836 2 9 -8.8 0 0 0 0 1 4
1837 2 9.2 -8.8 0 0 0 0 1 4
1788 2 9.4 -9 0 0 0 0 1 4
1789 2 9.6 -9 0 0 0 0 1 4
1838 2 9.4 -8.8 0 0 0 0 1 4
1839 2 9.6 -8.8 0 0 0 0 1 4
1790 2 9.8 -9 0 0 0 0 1 4
1840 2 9.8 -8.8 0 0 0 0 1 4
1791 2 10 -9 0 0 0 0 1 4
1841 2 10 -8.8 0 0 0 0 1 4
1792 2 10.2 -9 0 0 0 0 1 4
1842 2 10.2 -8.8 0 0 0 0 1 4
1793 2 10.4 -9 0 0 0 0 1 4
1843 2 10.4 -8.8 0 0 0 0 1 4
1794 2 10.6 -9 0 0 0 0 1 4
1844 2 10.6 -8.8 0 0 0 0 1 4
1795 2 10.8 -9 0 0 0 0 1 4
1845 2 10.8 -8.8 0 0 0 0 1 4
1851 2 2 -8.6 0 0 0 0 1 4
1901 2 2 -8.4 0 0 0 0 1 4
1852 2 2.2 -8.6 0 0 0 0 1 4
1853 2 2.4 -8.6 0 0 0 0 1 4
1902 2 2.2 -8.4 0 0 0 0 1 4
1903 2 2.4 -8.4 0 0 0 0 1 4
1854 2 2.6 -8.6 0 0 0 0 1 4
1855 2 2.8 -8.6 0 0 0 0 1 4
1904 2 2.6 -8.4 0 0 0 0 1 4
1905 2 2.8 -8.4 0 0 0 0 1 4
1856 2 3 -8.6 0 0 0 0 1 4
1857 2 3.2 -8.6 0 0 0 0 1 4
1906 2 3 -8.4 0 0 0 0 1 4
1907 2 3.2 -8.4 0 0 0 0 1 4
1858 2 3.4 -8.6 0 0 0 0 1 4
1859 2 3.6 -8.6 0 0 0 0 1 4
1908 2 3.4 -8.4 0 0 0 0 1 4
1909 2 3.6 -8.4 0 0 0 0 1 4
1860 2 3.8 -8.6 0 0 0 0 1 4
1910 2 3.8 -8.4 0 0 0 0 1 4
1861 2 4 -8.6 0 0 0 0 1 4
1911 2 4 -8.4 0 0 0 0 1 4
1862 2 4.2 -8.6 0 0 0 0 1 4
1912 2 4.2 -8.4 0 0 0 0 1 4
1863 2 4.4 -8.6 0 0 0 0 1 4
1864 2 4.6 -8.6 0 0 0 0 1 4
1913 2 4.4 -8.4 0 0 0 0 1 4
1914 2 4.6 -8.4 0 0 0 0 1 4
1865 2 4.8 -8.6 0 0 0 0 1 4
1866 2 5 -8.6 0 0 0 0 1 4
1915 2 4.8 -8.4 0 0 0 0 1 4
1916 2 5 -8.4 0 0 0 0 1 4
1867 2 5.2 -8.6 0 0 0 0 1 4
1868 2 5.4 -8.6 0 0 0 0 1 4
1917 2 5.2 -8.4 0 0 0 0 1 4
1918 2 5.4 -8.4 0 0 0 0 1 4
1869 2 5.6 -8.6 0 0 0 0 1 4
1870 2 5.8 -8.6 0 0 0 0 1 4
1919 2 5.6 -8.4 0 0 0 0 1 4
1920 2 5.8 -8.4 0 0 0 0 1 4
1871 2 6 -8.6 0 0 0 0 1 4
1872 2 6.2 -8.6 0 0 0 0 1 4
1921 2 6 -8.4 0 0 0 0 1 4
1922 2 6.2 -8.4 0 0 0 0 1 4
1873 2 6.4 -8.6 0 0 0 0 1 4
1874 2 6.6 -8.6 0 0 0 0 1 4
1923 2 6.4 -8.4 0 0 0 0 1 4
1924 2 6.6 -8.4 0 0 0 0 1 4
1875 2 6.8 -8.6 0 0 0 0 1 4
1876 2 7 -8.6 0 0 0 0 1 4
1925 2 6.8 -8.4 0 0 0 0 1 4
1926 2 7 -8.4 0 0 0 0 1 4
1877 2 7.2 -8.6 0 0 0 0 1 4
1927 2 7.2 -8.4 0 0 0 0 1 4
1878 2 7.4 -8.6 0 0 0 0 1 4
1879 2 7.6 -8.6 0 0 0 0 1 4
1928 2 7.4 -8.4 0 0 0 0 1 4
1929 2 7.6 -8.4 0 0 0 0 1 4
1880 2 7.8 -8.6 0 0 0 0 1 4
1881 2 8 -8.6 0 0 0 0 1 4
1930 2 7.8 -8.4 0 0 0 0 1 4
1931 2 8 -8.4 0 0 0 0 1 4
1882 2 8.2 -8.6 0 0 0 0 1 4
1883 2 8.4 -8.6 0 0 0 0 1 4
1932 2 8.2 -8.4 0 0 0 0 1 4
1933 2 8.4 -8.4 0 0 0 0 1 4
1884 2 8.6 -8.6 0 0 0 0 1 4
1885 2 8.8 -8.6 0 0 0 0 1 4
1934 2 8.6 -8.4 0 0 0 0 1 4
1935 2 8.8 -8.4 0 0 0 0 1 4
1886 2 9 -8.6 0 0 0 0 1 4
1887 2 9.2 -8.6 0 0 0 0 1 4
1936 2 9 -8.4 0 0 0 0 1 4
1937 2 9.2 -8.4 0 0 0 0 1 4
1888 2 9.4 -8.6 0 0 0 0 1 4
1889 2 9.6 -8.6 0 0 0 0 1 4
1938 2 9.4 -8.4 0 0 0 0 1 4
1939 2 9.6 -8.4 0 0 0 0 1 4
1890 2 9.8 -8.6 0 0 0 0 1 4
1940 2 9.8 -8.4 0 0 0 0 1 4
1891 2 10 -8.6 0 0 0 0 1 4
1941 2 10 -8.4 0 0 0 0 1 4
1892 2 10.2 -8.6 0 0 0 0 1 4
1942 2 10.2 -8.4 0 0 0 0 1 4
1893 2 10.4 -8.6 0 0 0 0 1 4
1943 2 10.4 -8.4 0 0 0 0 1 4
1894 2 10.6 -8.6 0 0 0 0 1 4
1944 2 10.6 -8.4 0 0 0 0 1 4
1895 2 10.8 -8.6 0 0 0 0 1 4
1945 2 10.8 -8.4 0 0 0 0 1 4
1951 2 2 -8.2 0 0 0 0 1 4
2001 2 2 -8 0 0 0 0 1 4
1952 2 2.2 -8.2 0 0 0 0 1 4
1953 2 2.4 -8.2 0 0 0 0 1 4
2002 2 2.2 -8 0 0 0 0 1 4
2003 2 2.4 -8 0 0 0 0 1 4
1954 2 2.6 -8.2 0 0 0 0 1 4
1955 2 2.8 -8.2 0 0 0 0 1 4
2004 2 2.6 -8 0 0 0 0 1 4
2005 2 2.8 -8 0 0 0 0 1 4
1956 2 3 -8.2 0 0 0 0 1 4
1957 2 3.2 -8.2 0 0 0 0 1 4
2006 2 3 -8 0 0 0 0 1 4
2007 2 3.2 -8 0 0 0 0 1 4
1958 2 3.4 -8.2 0 0 0 0 1 4
1959 2 3.6 -8.2 0 0 0 0 1 4
2008 2 3.4 -8 0 0 0 0 1 4
2009 2 3.6 -8 0 0 0 0 1 4
1960 2 3.8 -8.2 0 0 0 0 1 4
2010 2 3.8 -8 0 0 0 0 1 4
1961 2 4 -8.2 0 0 0 0 1 4
2011 2 4 -8 0 0 0 0 1 4
1962 2 4.2 -8.2 0 0 0 0 1 4
2012 2 4.2 -8 0 0 0 0 1 4
1963 2 4.4 -8.2 0 0 0 0 1 4
1964 2 4.6 -8.2 0 0 0 0 1 4
2013 2 4.4 -8 0 0 0 0 1 4
2014 2 4.6 -8 0 0 0 0 1 4
1965 2 4.8 -8.2 0 0 0 0 1 4
1966 2 5 -8.2 0 0 0 0 1 4
2015 2 4.8 -8 0 0 0 0 1 4
2016 2 5 -8 0 0 0 0 1 4
1967 2 5.2 -8.2 0 0 0 0 1 4
1968 2 5.4 -8.2 0 0 0 0 1 4
2017 2 5.2 -8 0 0 0 0 1 4
2018 2 5.4 -8 0 0 0 0 1 4
1969 2 5.6 -8.2 0 0 0 0 1 4
1970 2 5.8 -8.2 0 0 0 0 1 4
2019 2 5.6 -8 0 0 0 0 1 4
2020 2 5.8 -8 0 0 0 0 1 4
1971 2 6 -8.2 0 0 0 0 1 4
1972 2 6.2 -8.2 0 0 0 0 1 4
2021 2 6 -8 0 0 0 0 1 4
2022 2 6.2 -8 0 0 0 0 1 4
1973 2 6.4 -8.2 0 0 0 0 1 4
1974 2 6.6 -8.2 0 0 0 0 1 4
2023 2 6.4 -8 0 0 0 0 1 4
2024 2 6.6 -8 0 0 0 0 1 4
1975 2 6.8 -8.2 0 0 0 0 1 4
1976 2 7 -8.2 0 0 0 0 1 4
2025 2 6.8 -8 0 0 0 0 1 4
2026 2 7 -8 0 0 0 0 1 4
1977 2 7.2 -8.2 0 0 0 0 1 4
2027 2 7.2 -8 0 0 0 0 1 4
1978 2 7.4 -8.2 0 0 0 0 1 4
1979 2 7.6 -8.2 0 0 0 0 1 4
2028 2 7.4 -8 0 0 0 0 1 4
2029 2 7.6 -8 0 0 0 0 1 4
1980 2 7.8 -8.2 0 0 0 0 1 4
1981 2 8 -8.2 0 0 0 0 1 4
2030 2 7.8 -8 0 0 0 0 1 4
2031 2 8 -8 0 0 0 0 1 4
1982 2 8.2 -8.2 0 0 0 0 1 4
1983 2 8.4 -8.2 0 0 0 0 1 4
2032 2 8.2 -8 0 0 0 0 1 4
2033 2 8.4 -8 0 0 0 0 1 4
1984 2 8.6 -8.2 0 0 0 0 1 4
1985 2 8.8 -8.2 0 0 0 0 1 4
2034 2 8.6 -8 0 0 0 0 1 4
2035 2 8.8 -8 0 0 0 0 1 4
1986 2 9 -8.2 0 0 0 0 1 4
1987 2 9.2 -8.2 0 0 0 0 1 4
2036 2 9 -8 0 0 0 0 1 4
2037 2 9.2 -8 0 0 0 0 1 4
1988 2 9.4 -8.2 0 0 0 0 1 4
1989 2 9.6 -8.2 0 0 0 0 1 4
2038 2 9.4 -8 0 0 0 0 1 4
2039 2 9.6 -8 0 0 0 0 1 4
1990 2 9.8 -8.2 0 0 0 0 1 4
2040 2 9.8 -8 0 0 0 0 1 4
1991 2 10 -8.2 0 0 0 0 1 4
2041 2 10 -8 0 0 0 0 1 4
1992 2 10.2 -8.2 0 0 0 0 1 4
2042 2 10.2 -8 0 0 0 0 1 4
1993 2 10.4 -8.2 0 0 0 0 1 4
2043 2 10.4 -8 0 0 0 0 1 4
1994 2 10.6 -8.2 0 0 0 0 1 4
2044 2 10.6 -8 0 0 0 0 1 4
1995 2 10.8 -8.2 0 0 0 0 1 4
2045 2 10.8 -8 0 0 0 0 1 4
2051 2 2 -7.8 0 0 0 0 1 4
2101 2 2 -7.6 0 0 0 0 1 4
2151 2 2 -7.4 0 0 0 0 1.00038 4
2052 2 2.2 -7.8 0 0 0 0 1 4
2053 2 2.4 -7.8 0 0 0 0 1 4
2102 2 2.2 -7.6 0 0 0 0 1 4
2103 2 2.4 -7.6 0 0 0 0 1 4
2152 2 2.2 -7.4 0 0 0 0 0.999935 4
2153 2 2.4 -7.4 0 0 0 0 0.999992 4
2054 2 2.6 -7.8 0 0 0 0 1 4
2055 2 2.8 -7.8 0 0 0 0 1 4
2104 2 2.6 -7.6 0 0 0 0 1 4
2105 2 2.8 -7.6 0 0 0 0 1 4
2154 2 2.6 -7.4 0 0 0 0 0.999997 4
2155 2 2.8 -7.4 0 0 0 0 0.999981 4
2056 2 3 -7.8 0 0 0 0 1 4
2057 2 3.2 -7.8 0 0 0 0 1 4
2106 2 3 -7.6 0 0 0 0 1 4
2107 2 3.2 -7.6 0 0 0 0 1 4
2156 2 3 -7.4 0 0 0 0 1 4
2157 2 3.2 -7.4 0 0 0 0 0.999999 4
2058 2 3.4 -7.8 0 0 0 0 1 4
2059 2 3.6 -7.8 0 0 0 0 1 4
2108 2 3.4 -7.6 0 0 0 0 1 4
2109 2 3.6 -7.6 0 0 0 0 1 4
2158 2 3.4 -7.4 0 0 0 0 1.00002 4
2159 2 3.6 -7.4 0 0 0 0 1.00002 4
2060 2 3.8 -7.8 0 0 0 0 1 4
2110 2 3.8 -7.6 0 0 0 0 1 4
2160 2 3.8 -7.4 0 0 0 0 1.00004 4
2061 2 4 -7.8 0 0 0 0 1 4
2111 2 4 -7.6 0 0 0 0 1 4
2161 2 4 -7.4 0 0 0 0 1.0088 4
2062 2 4.2 -7.8 0 0 0 0 1 4
2112 2 4.2 -7.6 0 0 0 0 1 4
2162 2 4.2 -7.4 0 0 0 0 1.01264 4
2063 2 4.4 -7.8 0 0 0 0 1 4
2064 2 4.6 -7.8 0 0 0 0 1 4
2113 2 4.4 -7.6 0 0 0 0 1 4
2114 2 4.6 -7.6 0 0 0 0 1 4
2163 2 4.4 -7.4 0 0 0 0 1.00747 4
2164 2 4.6 -7.4 0 0 0 0 1.00422 4
2065 2 4.8 -7.8 0 0 0 0 1 4
2066 2 5 -7.8 0 0 0 0 1 4
2115 2 4.8 -7.6 0 0 0 0 1 4
2116 2 5 -7.6 0 0 0 0 1 4
2165 2 4.8 -7.4 0 0 0 0 1.00258 4
2166 2 5 -7.4 0 0 0 0 1.00241 4
2067 2 5.2 -7.8 0 0 0 0 1 4
2068 2 5.4 -7.8 0 0 0 0 1 4
2117 2 5.2 -7.6 0 0 0 0 1 4
2118 2 5.4 -7.6 0 0 0 0 1 4
2167 2 5.2 -7.4 0 0 0 0 1.00211 4
2168 2 5.4 -7.4 0 0 0 0 1.00214 4
2069 2 5.6 -7.8 0 0 0 0 1 4
2070 2 5.8 -7.8 0 0 0 0 1 4
2119 2 5.6 -7.6 0 0 0 0 1 4
2120 2 5.8 -7.6 0 0 0 0 1 4
2169 2 5.6 -7.4 0 0 0 0 1.00223 4
2170 2 5.8 -7.4 0 0 0 0 1.00228 4
2071 2 6 -7.8 0 0 0 0 1 4
2072 2 6.2 -7.8 0 0 0 0 1 4
2121 2 6 -7.6 0 0 0 0 1 4
2122 2 6.2 -7.6 0 0 0 0 1 4
2171 2 6 -7.4 0 0 0 0 1.00178 4
2172 2 6.2 -7.4 0 0 0 0 1.00179 4
2073 2 6.4 -7.8 0 0 0 0 1 4
2074 2 6.6 -7.8 0 0 0 0 1 4
2123 2 6.4 -7.6 0 0 0 0 1 4
2124 2 6.6 -7.6 0 0 0 0 1 4
2173 2 6.4 -7.4 0 0 0 0 1.00179 4
2174 2 6.6 -7.4 0 0 0 0 1.00173 4
2075 2 6.8 -7.8 0 0 0 0 1 4
2076 2 7 -7.8 0 0 0 0 1 4
2125 2 6.8 -7.6 0 0 0 0 1 4
2126 2 7 -7.6 0 0 0 0 1 4
2175 2 6.8 -7.4 0 0 0 0 1.00164 4
2176 2 7 -7.4 0 0 0 0 1.00166 4
2077 2 7.2 -7.8 0 0 0 0 1 4
2127 2 7.2 -7.6 0 0 0 0 1 4
2177 2 7.2 -7.4 0 0 0 0 1.00164 4
2078 2 7.4 -7.8 0 0 0 0 1 4
2079 2 7.6 -7.8 0 0 0 0 1 4
2128 2 7.4 -7.6 0 0 0 0 1 4
2129 2 7.6 -7.6 0 0 0 0 1 4
2178 2 7.4 -7.4 0 0 0 0 1.00161 4
2179 2 7.6 -7.4 0 0 0 0 1.00165 4
2080 2 7.8 -7.8 0 0 0 0 1 4
2081 2 8 -7.8 0 0 0 0 1 4
2130 2 7.8 -7.6 0 0 0 0 1 4
2131 2 8 -7.6 0 0 0 0 1 4
2180 2 7.8 -7.4 0 0 0 0 1.00164 4
2181 2 8 -7.4 0 0 0 0 1.00156 4
2082 2 8.2 -7.8 0 0 0 0 1 4
2083 2 8.4 -7.8 0 0 0 0 1 4
2132 2 8.2 -7.6 0 0 0 0 1 4
2133 2 8.4 -7.6 0 0 0 0 1 4
2182 2 8.2 -7.4 0 0 0 0 1.00155 4
2183 2 8.4 -7.4 0 0 0 0 1.00153 4
2084 2 8.6 -7.8 0 0 0 0 1 4
2085 2 8.8 -7.8 0 0 0 0 1 4
2134 2 8.6 -7.6 0 0 0 0 1 4
2135 2 8.8 -7.6 0 0 0 0 1 4
2184 2 8.6 -7.4 0 0 0 0 1.00147 4
2185 2 8.8 -7.4 0 0 0 0 1.00147 4
2086 2 9 -7.8 0 0 0 0 1 4
2087 2 9.2 -7.8 0 0 0 0 1 4
2136 2 9 -7.6 0 0 0 0 1 4
2137 2 9.2 -7.6 0 0 0 0 1 4
2186 2 9 -7.4 0 0 0 0 1.00155 4
2187 2 9.2 -7.4 0 0 0 0 1.00133 4
2088 2 9.4 -7.8 0 0 0 0 1 4
2089 2 9.6 -7.8 0 0 0 0 1 4
2138 2 9.4 -7.6 0 0 0 0 1 4
2139 2 9.6 -7.6 0 0 0 0 1 4
2188 2 9.4 -7.4 0 0 0 0 1.00139 4
2189 2 9.6 -7.4 0 0 0 0 1.00141 4
2090 2 9.8 -7.8 0 0 0 0 1 4
2140 2 9.8 -7.6 0 0 0 0 1 4
2190 2 9.8 -7.4 0 0 0 0 1.00134 4
2091 2 10 -7.8 0 0 0 0 1 4
2141 2 10 -7.6 0 0 0 0 1 4
2191 2 10 -7.4 0 0 0 0 1.00134 4
2092 2 10.2 -7.8 0 0 0 0 1 4
2142 2 10.2 -7.6 0 0 0 0 1 4
2192 2 10.2 -7.4 0 0 0 0 1.00127 4
2093 2 10.4 -7.8 0 0 0 0 1 4
2143 2 10.4 -7.6 0 0 0 0 1 4
2193 2 10.4 -7.4 0 0 0 0 1.00126 4
2094 2 10.6 -7.8 0 0 0 0 1 4
2144 2 10.6 -7.6 0 0 0 0 1 4
2194 2 10.6 -7.4 0 0 0 0 1.00118 4
2095 2 10.8 -7.8 0 0 0 0 1 4
2145 2 10.8 -7.6 0 0 0 0 1 4
2195 2 10.8 -7.4 0 0 0 0 1.00126 4
2201 2 2 -7.2 0 0 0 0 1.00023 4
2251 2 2 -7 0 0 0 0 1.0002 4
2202 2 2.2 -7.2 0 0 0 0 0.999979 4
2203 2 2.4 -7.2 0 0 0 0 0.999981 4
2252 2 2.2 -7 0 0 0 0 0.999992 4
2253 2 2.4 -7 0 0 0 0 0.999981 4
2204 2 2.6 -7.2 0 0 0 0 1 4
2205 2 2.8 -7.2 0 0 0 0 0.999991 4
2254 2 2.6 -7 0 0 0 0 0.999999 4
2255 2 2.8 -7 0 0 0 0 0.999994 4
2206 2 3 -7.2 0 0 0 0 0.999996 4
2207 2 3.2 -7.2 0 0 0 0 1 4
2256 2 3 -7 0 0 0 0 0.999996 4
2257 2 3.2 -7 0 0 0 0 1 4
2208 2 3.4 -7.2 0 0 0 0 1.00001 4
2209 2 3.6 -7.2 0 0 0 0 1.00002 4
2258 2 3.4 -7 0 0 0 0 1.00001 4
2259 2 3.6 -7 0 0 0 0 1.00003 4
2210 2 3.8 -7.2 0 0 0 0 1.00071 4
2260 2 3.8 -7 0 0 0 0 1.00114 4
2211 2 4 -7.2 0 0 0 0 1.00601 4
2261 2 4 -7 0 0 0 0 1.00588 4
2212 2 4.2 -7.2 0 0 0 0 1.00997 4
2262 2 4.2 -7 0 0 0 0 1.00955 4
2213 2 4.4 -7.2 0 0 0 0 1.00753 4
2214 2 4.6 -7.2 0 0 0 0 1.00446 4
2263 2 4.4 -7 0 0 0 0 1.0078 4
2264 2 4.6 -7 0 0 0 0 1.0048 4
2215 2 4.8 -7.2 0 0 0 0 1.00293 4
2216 2 5 -7.2 0 0 0 0 1.0027 4
2265 2 4.8 -7 0 0 0 0 1.00329 4
2266 2 5 -7 0 0 0 0 1.00296 4
2217 2 5.2 -7.2 0 0 0 0 1.00247 4
2218 2 5.4 -7.2 0 0 0 0 1.00234 4
2267 2 5.2 -7 0 0 0 0 1.00277 4
2268 2 5.4 -7 0 0 0 0 1.00257 4
2219 2 5.6 -7.2 0 0 0 0 1.0024 4
2220 2 5.8 -7.2 0 0 0 0 1.00232 4
2269 2 5.6 -7 0 0 0 0 1.00253 4
2270 2 5.8 -7 0 0 0 0 1.00238 4
2221 2 6 -7.2 0 0 0 0 1.00196 4
2222 2 6.2 -7.2 0 0 0 0 1.00191 4
2271 2 6 -7 0 0 0 0 1.00211 4
2272 2 6.2 -7 0 0 0 0 1.00204 4
2223 2 6.4 -7.2 0 0 0 0 1.00189 4
2224 2 6.6 -7.2 0 0 0 0 1.00183 4
2273 2 6.4 -7 0 0 0 0 1.002 4
2274 2 6.6 -7 0 0 0 0 1.00193 4
2225 2 6.8 -7.2 0 0 0 0 1.00175 4
2226 2 7 -7.2 0 0 0 0 1.00174 4
2275 2 6.8 -7 0 0 0 0 1.00185 4
2276 2 7 -7 0 0 0 0 1.00182 4
2227 2 7.2 -7.2 0 0 0 0 1.0017 4
2277 2 7.2 -7 0 0 0 0 1.00178 4
2228 2 7.4 -7.2 0 0 0 0 1.00165 4
2229 2 7.6 -7.2 0 0 0 0 1.0017 4
2278 2 7.4 -7 0 0 0 0 1.00173 4
2279 2 7.6 -7 0 0 0 0 1.00174 4
2230 2 7.8 -7.2 0 0 0 0 1.00168 4
2231 2 8 -7.2 0 0 0 0 1.00163 4
2280 2 7.8 -7 0 0 0 0 1.00173 4
2281 2 8 -7 0 0 0 0 1.00168 4
2232 2 8.2 -7.2 0 0 0 0 1.0016 4
2233 2 8.4 -7.2 0 0 0 0 1.00158 4
2282 2 8.2 -7 0 0 0 0 1.00165 4
2283 2 8.4 -7 0 0 0 0 1.00162 4
2234 2 8.6 -7.2 0 0 0 0 1.00153 4
2235 2 8.8 -7.2 0 0 0 0 1.00153 4
2284 2 8.6 -7 0 0 0 0 1.00159 4
2285 2 8.8 -7 0 0 0 0 1.00158 4
2236 2 9 -7.2 0 0 0 0 1.00155 4
2237 2 9.2 -7.2 0 0 0 0 1.00142 4
2286 2 9 -7 0 0 0 0 1.00157 4
2287 2 9.2 -7 0 0 0 0 1.00148 4
2238 2 9.4 -7.2 0 0 0 0 1.00144 4
2239 2 9.6 -7.2 0 0 0 0 1.00145 4
2288 2 9.4 -7 0 0 0 0 1.00148 4
2289 2 9.6 -7 0 0 0 0 1.00148 4
2240 2 9.8 -7.2 0 0 0 0 1.00139 4
2290 2 9.8 -7 0 0 0 0 1.00143 4
2241 2 10 -7.2 0 0 0 0 1.00135 4
2291 2 10 -7 0 0 0 0 1.00138 4
2242 2 10.2 -7.2 0 0 0 0 1.00131 4
2292 2 10.2 -7 0 0 0 0 1.00134 4
2243 2 10.4 -7.2 0 0 0 0 1.00127 4
2293 2 10.4 -7 0 0 0 0 1.0013 4
2244 2 10.6 -7.2 0 0 0 0 1.00122 4
2294 2 10.6 -7 0 0 0 0 1.00126 4
2245 2 10.8 -7.2 0 0 0 0 1.00127 4
2295 2 10.8 -7 0 0 0 0 1.00128 4
15376 1 1.60013 -6.75913 0.02 0 0 0 1.00064 1
15377 1 1.81081 -6.77156 0.02 0 0 0 1.00025 1
15378 1 1.81604 -6.58618 0.02 0 0 0 1.00005 1
15379 1 2.01486 -6.73708 0.02 0 0 0 1.00005 1
15381 1 2.01631 -6.55603 0.02 0 0 0 1.00001 1
15380 1 2.20844 -6.73668 0.02 0 0 0 0.99995 1
15382 1 2.21381 -6.55449 0.02 0 0 0 0.999997 1
15383 1 2.40058 -6.76418 0.02 0 0 0 0.999996 1
15385 1 2.41057 -6.56259 0.02 0 0 0 1 1
15384 1 2.58786 -6.72592 0.02 0 0 0 1.00001 1
15386 1 2.60917 -6.54316 0.02 0 0 0 1 1
15387 1 2.78073 -6.74511 0.02 0 0 0 0.999989 1
15389 1 2.80232 -6.5541 0.02 0 0 0 1 1
15388 1 2.97612 -6.75213 0.02 0 0 0 1 1
15390 1 2.99325 -6.56552 0.02 0 0 0 1 1
15391 1 3.17823 -6.74839 0.02 0 0 0 0.999998 1
15393 1 3.18242 -6.55383 0.02 0 0 0 1 1
15392 1 3.37655 -6.75526 0.02 0 0 0 1.00001 1
15394 1 3.37546 -6.57356 0.02 0 0 0 1 1
15395 1 3.57137 -6.55521 0.02 0 0 0 1 1
15396 1 3.58072 -6.7397 0.02 0 0 0 1 1
15000 1 3.75874 -6.5656 0.02 0 0 0 1.00002 1
14998 1 3.7912 -6.76647 0.02 0 0 0 1.00002 1
14999 1 3.99351 -6.74125 0.02 0 0 0 1.00011 1
15001 1 3.94574 -6.56063 0.02 0 0 0 1.00008 1
15004 1 4.10335 -6.54559 0.0167214 0.00295547 2.65393e-06 2.31534e-07 1.00999 0
15002 1 4.13242 -6.75912 0.0113641 0.000920584 7.07251e-06 3.22823e-06 1.01317 0
15003 1 4.26814 -6.61879 0.0142867 0.00303402 3.44168e-06 6.48354e-06 1.01005 0
15005 1 4.28271 -6.45431 0.0167616 0.00416617 6.49855e-07 6.13253e-06 1.00919 0
15006 1 4.35262 -6.74831 0.00911488 0.000999439 3.18851e-06 4.15169e-06 1.00924 0
15008 1 4.45074 -6.42558 0.0167981 0.00399595 -3.37036e-06 8.74059e-06 1.0066 0
15007 1 4.53 -6.5778 0.0133319 0.00240549 -5.47933e-07 7.6977e-06 1.00556 0
15010 1 4.5299 -6.74558 0.00786574 0.000925013 2.27823e-06 4.41722e-06 1.00569 0
15011 1 4.75067 -6.53365 0.0125665 0.00206413 -2.36025e-06 5.67923e-06 1.00427 0
15014 1 4.70238 -6.73567 0.00695033 0.000700864 9.84263e-07 3.57094e-06 1.00424 0
14651 1 5.01697 -6.5297 0.0106616 0.0014593 -1.05609e-06 1.81596e-06 1.00371 0
14653 1 4.86338 -6.6569 0.00835585 0.000962845 -3.57855e-07 3.07161e-06 1.00348 0
14654 1 5.19284 -6.51523 0.00993525 0.0011878 -8.99042e-08 3.2299e-07 1.00339 0
14659 1 4.99098 -6.74763 0.00502242 0.000329711 7.13922e-07 1.17694e-06 1.00363 0
14664 1 5.16174 -6.69941 0.00560547 0.000382876 6.52415e-07 1.6389e-07 1.00327 0
14660 1 5.38368 -6.56424 0.00802217 0.000778323 1.46867e-06 -9.13568e-07 1.00293 0
14671 1 5.32528 -6.74875 0.00401747 0.000158988 1.36916e-06 -6.52584e-07 1.00302 0
14315 1 5.53474 -6.62808 0.00606414 0.000479625 1.63871e-06 -1.24718e-06 1.00264 0
14328 1 5.59203 -6.78373 0.00297434 9.82984e-05 1.36668e-06 -9.86671e-07 1.00279 0
14318 1 5.78429 -6.58634 0.00619976 0.000471819 1.4481e-06 -1.40625e-06 1.0025 0
13991 1 5.82384 -6.72568 0.00350159 0.00018403 1.44719e-06 -8.87678e-07 1.00243 0
13996 1 5.98515 -6.70491 0.00358296 0.000121668 6.67509e-07 -7.96133e-07 1.00231 0
14322 1 6.10751 -6.54853 0.0060927 0.000446444 2.9591e-07 -9.50267e-07 1.00226 0
14002 1 6.35426 -6.5861 0.00498817 0.00028019 -5.87327e-07 -4.61393e-07 1.00209 0
13638 1 6.15005 -6.73953 0.0027883 5.65256e-05 1.54653e-07 -5.08517e-07 1.00227 0
13276 1 6.34387 -6.74908 0.00249861 4.37992e-05 -2.12758e-07 -3.27568e-07 1.00218 0
13631 1 6.57784 -6.56386 0.00499604 0.000264114 -1.24127e-06 -1.79602e-07 1.00202 0
12923 1 6.53916 -6.74108 0.0024546 3.39117e-05 -6.71228e-07 -1.29022e-07 1.0021 0
13634 1 6.77579 -6.53644 0.00512128 0.000257517 -1.65219e-06 4.64766e-08 1.00196 0
12927 1 6.72906 -6.72281 0.00257018 3.11849e-05 -9.95331e-07 2.51945e-08 1.002 0
13642 1 6.97243 -6.54408 0.00478895 0.000222317 -1.74176e-06 2.0055e-07 1.00191 0
12585 1 6.90823 -6.73176 0.00235943 1.95038e-05 -1.04285e-06 1.2141e-07 1.00197 0
12592 1 7.08793 -6.71558 0.00246888 2.08577e-05 -1.14081e-06 1.85017e-07 1.00195 0
12248 1 7.25897 -6.70541 0.00249772 1.91364e-05 -1.15359e-06 2.2978e-07 1.0019 0
12934 1 7.62978 -6.55347 0.00410733 0.000146039 -1.39276e-06 3.76126e-07 1.00176 0
11919 1 7.42692 -6.68719 0.00262358 2.1869e-05 -1.20437e-06 2.68846e-07 1.00179 0
11538 1 7.5813 -6.75127 0.00186898 3.68789e-06 -8.44017e-07 1.96334e-07 1.00184 0
12943 1 7.79944 -6.55527 0.00397232 0.000120477 -1.26076e-06 3.55127e-07 1.00174 0
12936 1 7.97146 -6.52255 0.00424124 0.000123053 -1.17101e-06 3.32917e-07 1.00171 0
11195 1 7.78446 -6.73492 0.00196128 1.21515e-05 -7.75632e-07 1.72969e-07 1.0018 0
10864 1 7.97946 -6.74194 0.00184418 -2.23469e-06 -7.00314e-07 1.767e-07 1.00176 0
12254 1 8.12976 -6.57411 0.00360165 9.5286e-05 -9.61706e-07 2.86692e-07 1.00167 0
10527 1 8.19368 -6.73375 0.00186736 1.83864e-06 -5.90266e-07 1.72772e-07 1.00171 0
12589 1 8.46337 -6.5501 0.00370839 8.67489e-05 -7.70029e-07 3.3154e-07 1.00164 0
10538 1 8.3897 -6.73987 0.001769 -7.94568e-06 -5.76129e-07 1.70566e-07 1.00171 0
11207 1 8.6277 -6.55777 0.00356244 6.84461e-05 -6.70189e-07 3.6368e-07 1.00161 0
10178 1 8.60418 -6.74098 0.0016968 -4.47729e-06 -4.93115e-07 1.9143e-07 1.00165 0
10185 1 8.88452 -6.62462 0.00277127 4.02227e-05 -4.60217e-07 3.51959e-07 1.00157 0
3116 1 8.85414 -6.78764 0.00133068 -1.95838e-05 -3.69426e-07 1.67239e-07 1.00164 0
3119 1 9.08312 -6.71316 0.00188056 2.06115e-06 -3.42479e-07 2.57739e-07 1.00155 0
3123 1 9.28253 -6.76889 0.00140115 -2.82599e-05 -2.66348e-07 2.36291e-07 1.00155 0
11916 1 9.1815 -6.55097 0.0034392 6.71419e-05 -1.89114e-07 3.69347e-07 1.0015 0
3109 1 9.44408 -6.62195 0.0026752 4.16082e-05 -2.37915e-09 2.99446e-07 1.00147 0
3113 1 9.67228 -6.58461 0.00298098 4.39989e-05 2.72305e-07 2.85758e-07 1.00145 0
3124 1 9.55013 -6.75637 0.00144423 -1.316e-05 -5.23735e-08 2.04187e-07 1.00153 0
3125 1 9.76805 -6.72126 0.00169554 -9.06141e-06 1.28607e-07 1.8871e-07 1.00146 0
3117 1 9.95642 -6.56786 0.00307417 3.31327e-05 5.86253e-07 2.26707e-07 1.00139 0
3121 1 10.1924 -6.55783 0.00312037 1.81448e-05 8.51323e-07 1.86326e-07 1.00135 0
3126 1 9.95978 -6.74025 0.00150965 -1.32055e-05 2.40565e-07 1.5161e-07 1.00143 0
3127 1 10.1528 -6.73175 0.00155977 -2.25468e-05 3.78275e-07 1.05044e-07 1.00141 0
10521 1 10.4043 -6.54434 0.00320972 6.51913e-06 1.07539e-06 1.23154e-07 1.00131 0
3128 1 10.3458 -6.74037 0.00147008 -2.7398e-05 4.69964e-07 7.32161e-08 1.00137 0
3129 1 10.539 -6.67087 0.00205699 -1.47113e-05 7.79539e-07 7.35166e-08 1.00126 0
3131 1 10.6811 -6.76275 0.00130655 -1.98774e-05 5.81957e-07 2.76669e-08 1.0013 0
3105 1 10.8151 -6.55939 0.0030216 1.69844e-05 1.30932e-06 1.70493e-08 1.00126 0
14529 1 6.76785 -0.379764 0.0227523 0.000589674 1.68488e-07 2.26161e-07 1.00172 0
3130 1 10.8893 -6.72688 0.00154412 -1.40444e-05 7.68203e-07 -7.39145e-09 1.0013 0
15397 1 1.77558 -6.41015 0.02 0 0 0 1 1
15398 1 1.80604 -6.22782 0.02 0 0 0 1 1
15399 1 1.99562 -6.38041 0.02 0 0 0 1 1
15401 1 2.01537 -6.20093 0.02 0 0 0 1 1
15400 1 2.22724 -6.37493 0.02 0 0 0 1 1
15402 1 2.2207 -6.19124 0.02 0 0 0 1 1
15403 1 2.4366 -6.37295 0.02 0 0 0 1 1
15405 1 2.43218 -6.18503 0.02 0 0 0 1 1
15404 1 2.63582 -6.35256 0.02 0 0 0 1 1
15406 1 2.63515 -6.15959 0.02 0 0 0 1 1
15407 1 2.82902 -6.35927 0.02 0 0 0 1 1
15409 1 2.83289 -6.16214 0.02 0 0 0 1 1
15408 1 3.0186 -6.37098 0.02 0 0 0 1 1
15410 1 3.02421 -6.16723 0.02 0 0 0 1 1
15411 1 3.20986 -6.35953 0.02 0 0 0 1 1
15413 1 3.21662 -6.16965 0.02 0 0 0 1 1
15020 1 3.60372 -6.16523 0.02 0 0 0 1 1
15412 1 3.39963 -6.38627 0.02 0 0 0 1 1
15414 1 3.41093 -6.1843 0.02 0 0 0 1 1
15415 1 3.5916 -6.36285 0.02 0 0 0 1 1
15016 1 3.78197 -6.35968 0.02 0 0 0 1.00002 1
15017 1 3.97259 -6.37026 0.02 0 0 0 1.00007 1
15018 1 3.79863 -6.15822 0.02 0 0 0 1.00002 1
15019 1 3.99447 -6.17271 0.02 0 0 0 1.00004 1
15021 1 4.13328 -6.34529 0.017586 0.00316822 3.26387e-06 -2.75207e-07 1.0084 0
15022 1 4.324 -6.26754 0.0179304 0.00478074 9.1576e-07 4.24602e-06 1.00718 0
15023 1 4.16359 -6.15539 0.0178824 0.00340935 8.64675e-06 -1.33513e-06 1.0065 0
15024 1 4.35728 -6.08609 0.0184333 0.00495162 5.62305e-06 2.44115e-06 1.00559 0
15025 1 4.5142 -6.23143 0.0181051 0.00481147 -5.91429e-06 6.97105e-06 1.00535 0
15027 1 4.54511 -6.03172 0.0187735 0.00523836 -4.43201e-06 4.06882e-06 1.00458 0
15009 1 4.62902 -6.39814 0.016046 0.00350514 -5.40885e-06 7.59208e-06 1.00508 0
15012 1 4.78753 -6.31872 0.0159639 0.00346478 -6.20306e-06 4.64913e-06 1.00458 0
15026 1 4.68863 -6.16434 0.0178788 0.00465162 -7.95227e-06 4.8288e-06 1.00458 0
15029 1 4.88172 -6.14219 0.0171422 0.00418189 -7.33497e-06 2.27587e-06 1.00427 0
15013 1 4.93589 -6.38546 0.0139701 0.00254453 -4.19625e-06 3.12805e-06 1.00425 0
15015 1 5.06367 -6.26029 0.0149312 0.00295654 -4.00175e-06 9.67641e-07 1.00402 0
15030 1 5.04571 -6.06906 0.0169651 0.00404563 -5.57842e-06 1.94548e-07 1.00395 0
15033 1 5.21864 -6.07701 0.0160923 0.00351147 -3.3004e-06 -6.24677e-07 1.00365 0
14652 1 5.21911 -6.31329 0.0133012 0.00222145 -1.72682e-06 -1.054e-07 1.00364 0
14655 1 5.37471 -6.38637 0.0113409 0.00154881 2.6293e-07 -8.87581e-07 1.00326 0
14656 1 5.3741 -6.1793 0.014231 0.00260164 -9.80103e-07 -1.07398e-06 1.00339 0
14657 1 5.54957 -6.20785 0.013046 0.00211867 3.3319e-07 -1.43227e-06 1.00313 0
14663 1 5.55487 -6.38944 0.0104601 0.00131989 1.21867e-06 -1.46318e-06 1.00301 0
14658 1 5.70622 -6.10308 0.0136041 0.00231262 4.53771e-07 -1.46944e-06 1.00295 0
14667 1 5.6873 -6.47194 0.00859423 0.000886868 1.56146e-06 -1.59274e-06 1.00278 0
14661 1 5.76991 -6.27162 0.0112803 0.00152791 9.37127e-07 -1.59299e-06 1.00284 0