ITEM: TIMESTEP
85000
ITEM: NUMBER OF ATOMS
12882
ITEM: BOX BOUNDS ff ff pp
0.0000000000000000e+00 2.2000000000000000e+01
-1.0000000000000000e+01 1.0000000000000000e+01
-2.0000000000000000e-02 2.0000000000000000e-02
ITEM: ATOMS id type x y vx vy fx fy c_den c_phase
1501 2 2 -10 0 0 0 0 1 5
1535 2 2 -9.8 0 0 0 0 1 5
1569 2 2 -9.6 0 0 0 0 1 5
1502 2 2.2 -10 0 0 0 0 1 5
1503 2 2.4 -10 0 0 0 0 1 5
1536 2 2.2 -9.8 0 0 0 0 1 5
1537 2 2.4 -9.8 0 0 0 0 1 5
1570 2 2.2 -9.6 0 0 0 0 1 5
1571 2 2.4 -9.6 0 0 0 0 1 5
1504 2 2.6 -10 0 0 0 0 1 5
1505 2 2.8 -10 0 0 0 0 1 5
1538 2 2.6 -9.8 0 0 0 0 1 5
1539 2 2.8 -9.8 0 0 0 0 1 5
1572 2 2.6 -9.6 0 0 0 0 1 5
1573 2 2.8 -9.6 0 0 0 0 1 5
1506 2 3 -10 0 0 0 0 1 5
1540 2 3 -9.8 0 0 0 0 1 5
1574 2 3 -9.6 0 0 0 0 1 5
1507 2 3.2 -10 0 0 0 0 1 5
1541 2 3.2 -9.8 0 0 0 0 1 5
1575 2 3.2 -9.6 0 0 0 0 1 5
1508 2 3.4 -10 0 0 0 0 1 5
1542 2 3.4 -9.8 0 0 0 0 1 5
1576 2 3.4 -9.6 0 0 0 0 1 5
1509 2 3.6 -10 0 0 0 0 1 5
1543 2 3.6 -9.8 0 0 0 0 1 5
1577 2 3.6 -9.6 0 0 0 0 1 5
1510 2 3.8 -10 0 0 0 0 1 5
1544 2 3.8 -9.8 0 0 0 0 1 5
1578 2 3.8 -9.6 0 0 0 0 1 5
1511 2 4 -10 0 0 0 0 1 5
1512 2 4.2 -10 0 0 0 0 1 5
1545 2 4 -9.8 0 0 0 0 1 5
1546 2 4.2 -9.8 0 0 0 0 1 5
1579 2 4 -9.6 0 0 0 0 1 5
1580 2 4.2 -9.6 0 0 0 0 1 5
1513 2 4.4 -10 0 0 0 0 1 5
1514 2 4.6 -10 0 0 0 0 1 5
1547 2 4.4 -9.8 0 0 0 0 1 5
1548 2 4.6 -9.8 0 0 0 0 1 5
1581 2 4.4 -9.6 0 0 0 0 1 5
1582 2 4.6 -9.6 0 0 0 0 1 5
1515 2 4.8 -10 0 0 0 0 1 5
1516 2 5 -10 0 0 0 0 1 5
1549 2 4.8 -9.8 0 0 0 0 1 5
1550 2 5 -9.8 0 0 0 0 1 5
1583 2 4.8 -9.6 0 0 0 0 1 5
1584 2 5 -9.6 0 0 0 0 1 5
1517 2 5.2 -10 0 0 0 0 1 5
1518 2 5.4 -10 0 0 0 0 1 5
1551 2 5.2 -9.8 0 0 0 0 1 5
1552 2 5.4 -9.8 0 0 0 0 1 5
1585 2 5.2 -9.6 0 0 0 0 1 5
1586 2 5.4 -9.6 0 0 0 0 1 5
1519 2 5.6 -10 0 0 0 0 1 5
1553 2 5.6 -9.8 0 0 0 0 1 5
1587 2 5.6 -9.6 0 0 0 0 1 5
1520 2 5.8 -10 0 0 0 0 1 5
1554 2 5.8 -9.8 0 0 0 0 1 5
1588 2 5.8 -9.6 0 0 0 0 1 5
1521 2 6 -10 0 0 0 0 1 5
1555 2 6 -9.8 0 0 0 0 1 5
1589 2 6 -9.6 0 0 0 0 1 5
1522 2 6.2 -10 0 0 0 0 1 5
1523 2 6.4 -10 0 0 0 0 1 5
1556 2 6.2 -9.8 0 0 0 0 1 5
1557 2 6.4 -9.8 0 0 0 0 1 5
1590 2 6.2 -9.6 0 0 0 0 1 5
1591 2 6.4 -9.6 0 0 0 0 1 5
1524 2 6.6 -10 0 0 0 0 1 5
1525 2 6.8 -10 0 0 0 0 1 5
1558 2 6.6 -9.8 0 0 0 0 1 5
1559 2 6.8 -9.8 0 0 0 0 1 5
1592 2 6.6 -9.6 0 0 0 0 1 5
1593 2 6.8 -9.6 0 0 0 0 1 5
1526 2 7 -10 0 0 0 0 1 5
1527 2 7.2 -10 0 0 0 0 1 5
1560 2 7 -9.8 0 0 0 0 1 5
1561 2 7.2 -9.8 0 0 0 0 1 5
1594 2 7 -9.6 0 0 0 0 1 5
1595 2 7.2 -9.6 0 0 0 0 1 5
1603 2 2 -9.4 0 0 0 0 1 5
1637 2 2 -9.2 0 0 0 0 1 5
1604 2 2.2 -9.4 0 0 0 0 1 5
1605 2 2.4 -9.4 0 0 0 0 1 5
1638 2 2.2 -9.2 0 0 0 0 1 5
1639 2 2.4 -9.2 0 0 0 0 1 5
1606 2 2.6 -9.4 0 0 0 0 1 5
1607 2 2.8 -9.4 0 0 0 0 1 5
1640 2 2.6 -9.2 0 0 0 0 1 5
1641 2 2.8 -9.2 0 0 0 0 1 5
1608 2 3 -9.4 0 0 0 0 1 5
1642 2 3 -9.2 0 0 0 0 1 5
1609 2 3.2 -9.4 0 0 0 0 1 5
1643 2 3.2 -9.2 0 0 0 0 1 5
1610 2 3.4 -9.4 0 0 0 0 1 5
1644 2 3.4 -9.2 0 0 0 0 1 5
1611 2 3.6 -9.4 0 0 0 0 1 5
1645 2 3.6 -9.2 0 0 0 0 1 5
1612 2 3.8 -9.4 0 0 0 0 1 5
1646 2 3.8 -9.2 0 0 0 0 1 5
1613 2 4 -9.4 0 0 0 0 1 5
1614 2 4.2 -9.4 0 0 0 0 1 5
1647 2 4 -9.2 0 0 0 0 1 5
1648 2 4.2 -9.2 0 0 0 0 1 5
1615 2 4.4 -9.4 0 0 0 0 1 5
1616 2 4.6 -9.4 0 0 0 0 1 5
1649 2 4.4 -9.2 0 0 0 0 1 5
1650 2 4.6 -9.2 0 0 0 0 1 5
1617 2 4.8 -9.4 0 0 0 0 1 5
1618 2 5 -9.4 0 0 0 0 1 5
1651 2 4.8 -9.2 0 0 0 0 1 5
1652 2 5 -9.2 0 0 0 0 1 5
1619 2 5.2 -9.4 0 0 0 0 1 5
1620 2 5.4 -9.4 0 0 0 0 1 5
1653 2 5.2 -9.2 0 0 0 0 1 5
1654 2 5.4 -9.2 0 0 0 0 1 5
1621 2 5.6 -9.4 0 0 0 0 1 5
1655 2 5.6 -9.2 0 0 0 0 1 5
1622 2 5.8 -9.4 0 0 0 0 1 5
1656 2 5.8 -9.2 0 0 0 0 1 5
1623 2 6 -9.4 0 0 0 0 1 5
1657 2 6 -9.2 0 0 0 0 1 5
1624 2 6.2 -9.4 0 0 0 0 1 5
1625 2 6.4 -9.4 0 0 0 0 1 5
1658 2 6.2 -9.2 0 0 0 0 1 5
1659 2 6.4 -9.2 0 0 0 0 1 5
1626 2 6.6 -9.4 0 0 0 0 1 5
1627 2 6.8 -9.4 0 0 0 0 1 5
1660 2 6.6 -9.2 0 0 0 0 1 5
1661 2 6.8 -9.2 0 0 0 0 1 5
1628 2 7 -9.4 0 0 0 0 1 5
1629 2 7.2 -9.4 0 0 0 0 1 5
1662 2 7 -9.2 0 0 0 0 1 5
1663 2 7.2 -9.2 0 0 0 0 1 5
1671 2 2 -9 0 0 0 0 1 5
1705 2 2 -8.8 0 0 0 0 1 5
1672 2 2.2 -9 0 0 0 0 1 5
1673 2 2.4 -9 0 0 0 0 1 5
1706 2 2.2 -8.8 0 0 0 0 1 5
1707 2 2.4 -8.8 0 0 0 0 1 5
1674 2 2.6 -9 0 0 0 0 1 5
1675 2 2.8 -9 0 0 0 0 1 5
1708 2 2.6 -8.8 0 0 0 0 1 5
1709 2 2.8 -8.8 0 0 0 0 1 5
1676 2 3 -9 0 0 0 0 1 5
1710 2 3 -8.8 0 0 0 0 1 5
1677 2 3.2 -9 0 0 0 0 1 5
1711 2 3.2 -8.8 0 0 0 0 1 5
1678 2 3.4 -9 0 0 0 0 1 5
1712 2 3.4 -8.8 0 0 0 0 1 5
1679 2 3.6 -9 0 0 0 0 1 5
1713 2 3.6 -8.8 0 0 0 0 1 5
1680 2 3.8 -9 0 0 0 0 1 5
1714 2 3.8 -8.8 0 0 0 0 1 5
1681 2 4 -9 0 0 0 0 1 5
1682 2 4.2 -9 0 0 0 0 1 5
1715 2 4 -8.8 0 0 0 0 1 5
1716 2 4.2 -8.8 0 0 0 0 1 5
1683 2 4.4 -9 0 0 0 0 1 5
1684 2 4.6 -9 0 0 0 0 1 5
1717 2 4.4 -8.8 0 0 0 0 1 5
1718 2 4.6 -8.8 0 0 0 0 1 5
1685 2 4.8 -9 0 0 0 0 1 5
1686 2 5 -9 0 0 0 0 1 5
1719 2 4.8 -8.8 0 0 0 0 1 5
1720 2 5 -8.8 0 0 0 0 1 5
1687 2 5.2 -9 0 0 0 0 1 5
1688 2 5.4 -9 0 0 0 0 1 5
1721 2 5.2 -8.8 0 0 0 0 1 5
1722 2 5.4 -8.8 0 0 0 0 1 5
1689 2 5.6 -9 0 0 0 0 1 5
1723 2 5.6 -8.8 0 0 0 0 1 5
1690 2 5.8 -9 0 0 0 0 1 5
1724 2 5.8 -8.8 0 0 0 0 1 5
1691 2 6 -9 0 0 0 0 1 5
1725 2 6 -8.8 0 0 0 0 1 5
1692 2 6.2 -9 0 0 0 0 1 5
1693 2 6.4 -9 0 0 0 0 1 5
1726 2 6.2 -8.8 0 0 0 0 1 5
1727 2 6.4 -8.8 0 0 0 0 1 5
1694 2 6.6 -9 0 0 0 0 1 5
1695 2 6.8 -9 0 0 0 0 1 5
1728 2 6.6 -8.8 0 0 0 0 1 5
1729 2 6.8 -8.8 0 0 0 0 1 5
1696 2 7 -9 0 0 0 0 1 5
1697 2 7.2 -9 0 0 0 0 1 5
1730 2 7 -8.8 0 0 0 0 1 5
1731 2 7.2 -8.8 0 0 0 0 1 5
1739 2 2 -8.6 0 0 0 0 1 5
1773 2 2 -8.4 0 0 0 0 1 5
1740 2 2.2 -8.6 0 0 0 0 1 5
1741 2 2.4 -8.6 0 0 0 0 1 5
1774 2 2.2 -8.4 0 0 0 0 1 5
1775 2 2.4 -8.4 0 0 0 0 1 5
1742 2 2.6 -8.6 0 0 0 0 1 5
1743 2 2.8 -8.6 0 0 0 0 1 5
1776 2 2.6 -8.4 0 0 0 0 1 5
1777 2 2.8 -8.4 0 0 0 0 1 5
1744 2 3 -8.6 0 0 0 0 1 5
1778 2 3 -8.4 0 0 0 0 1 5
1745 2 3.2 -8.6 0 0 0 0 1 5
1779 2 3.2 -8.4 0 0 0 0 1 5
1746 2 3.4 -8.6 0 0 0 0 1 5
1780 2 3.4 -8.4 0 0 0 0 1 5
1747 2 3.6 -8.6 0 0 0 0 1 5
1781 2 3.6 -8.4 0 0 0 0 1 5
1748 2 3.8 -8.6 0 0 0 0 1 5
1782 2 3.8 -8.4 0 0 0 0 1 5
1749 2 4 -8.6 0 0 0 0 1 5
1750 2 4.2 -8.6 0 0 0 0 1 5
1783 2 4 -8.4 0 0 0 0 1 5
1784 2 4.2 -8.4 0 0 0 0 1 5
1751 2 4.4 -8.6 0 0 0 0 1 5
1752 2 4.6 -8.6 0 0 0 0 1 5
1785 2 4.4 -8.4 0 0 0 0 1 5
1786 2 4.6 -8.4 0 0 0 0 1 5
1753 2 4.8 -8.6 0 0 0 0 1 5
1754 2 5 -8.6 0 0 0 0 1 5
1787 2 4.8 -8.4 0 0 0 0 1 5
1788 2 5 -8.4 0 0 0 0 1 5
1755 2 5.2 -8.6 0 0 0 0 1 5
1756 2 5.4 -8.6 0 0 0 0 1 5
1789 2 5.2 -8.4 0 0 0 0 1 5
1790 2 5.4 -8.4 0 0 0 0 1 5
1757 2 5.6 -8.6 0 0 0 0 1 5
1791 2 5.6 -8.4 0 0 0 0 1 5
1758 2 5.8 -8.6 0 0 0 0 1 5
1792 2 5.8 -8.4 0 0 0 0 1 5
1759 2 6 -8.6 0 0 0 0 1 5
1793 2 6 -8.4 0 0 0 0 1 5
1760 2 6.2 -8.6 0 0 0 0 1 5
1761 2 6.4 -8.6 0 0 0 0 1 5
1794 2 6.2 -8.4 0 0 0 0 1 5
1795 2 6.4 -8.4 0 0 0 0 1 5
1762 2 6.6 -8.6 0 0 0 0 1 5
1763 2 6.8 -8.6 0 0 0 0 1 5
1796 2 6.6 -8.4 0 0 0 0 1 5
1797 2 6.8 -8.4 0 0 0 0 1 5
1764 2 7 -8.6 0 0 0 0 1 5
1765 2 7.2 -8.6 0 0 0 0 1 5
1798 2 7 -8.4 0 0 0 0 1 5
1799 2 7.2 -8.4 0 0 0 0 1 5
1807 2 2 -8.2 0 0 0 0 1 5
1841 2 2 -8 0 0 0 0 1 5
1808 2 2.2 -8.2 0 0 0 0 1 5
1809 2 2.4 -8.2 0 0 0 0 1 5
1842 2 2.2 -8 0 0 0 0 1 5
1843 2 2.4 -8 0 0 0 0 1 5
1810 2 2.6 -8.2 0 0 0 0 1 5
1811 2 2.8 -8.2 0 0 0 0 1 5
1844 2 2.6 -8 0 0 0 0 1 5
1845 2 2.8 -8 0 0 0 0 1 5
1812 2 3 -8.2 0 0 0 0 1 5
1846 2 3 -8 0 0 0 0 1 5
1813 2 3.2 -8.2 0 0 0 0 1 5
1847 2 3.2 -8 0 0 0 0 1 5
1814 2 3.4 -8.2 0 0 0 0 1 5
1848 2 3.4 -8 0 0 0 0 1 5
1815 2 3.6 -8.2 0 0 0 0 1 5
1849 2 3.6 -8 0 0 0 0 1 5
1816 2 3.8 -8.2 0 0 0 0 1 5
1850 2 3.8 -8 0 0 0 0 1 5
1817 2 4 -8.2 0 0 0 0 1 5
1818 2 4.2 -8.2 0 0 0 0 1 5
1851 2 4 -8 0 0 0 0 1 5
1852 2 4.2 -8 0 0 0 0 1 5
1819 2 4.4 -8.2 0 0 0 0 1 5
1820 2 4.6 -8.2 0 0 0 0 1 5
1853 2 4.4 -8 0 0 0 0 1 5
1854 2 4.6 -8 0 0 0 0 1 5
1821 2 4.8 -8.2 0 0 0 0 1 5
1822 2 5 -8.2 0 0 0 0 1 5
1855 2 4.8 -8 0 0 0 0 1 5
1856 2 5 -8 0 0 0 0 1 5
1823 2 5.2 -8.2 0 0 0 0 1 5
1824 2 5.4 -8.2 0 0 0 0 1 5
1857 2 5.2 -8 0 0 0 0 1 5
1858 2 5.4 -8 0 0 0 0 1 5
1825 2 5.6 -8.2 0 0 0 0 1 5
1859 2 5.6 -8 0 0 0 0 1 5
1826 2 5.8 -8.2 0 0 0 0 1 5
1860 2 5.8 -8 0 0 0 0 1 5
1827 2 6 -8.2 0 0 0 0 1 5
1861 2 6 -8 0 0 0 0 1 5
1828 2 6.2 -8.2 0 0 0 0 1 5
1829 2 6.4 -8.2 0 0 0 0 1 5
1862 2 6.2 -8 0 0 0 0 1 5
1863 2 6.4 -8 0 0 0 0 1 5
1830 2 6.6 -8.2 0 0 0 0 1 5
1831 2 6.8 -8.2 0 0 0 0 1 5
1864 2 6.6 -8 0 0 0 0 1 5
1865 2 6.8 -8 0 0 0 0 1 5
1832 2 7 -8.2 0 0 0 0 1 5
1833 2 7.2 -8.2 0 0 0 0 1 5
1866 2 7 -8 0 0 0 0 1 5
1867 2 7.2 -8 0 0 0 0 1 5
1875 2 2 -7.8 0 0 0 0 1 5
1909 2 2 -7.6 0 0 0 0 1 5
1943 2 2 -7.4 0 0 0 0 1.01222 5
1876 2 2.2 -7.8 0 0 0 0 1 5
1877 2 2.4 -7.8 0 0 0 0 1 5
1910 2 2.2 -7.6 0 0 0 0 1 5
1911 2 2.4 -7.6 0 0 0 0 1 5
1944 2 2.2 -7.4 0 0 0 0 1.00066 5
1945 2 2.4 -7.4 0 0 0 0 0.998428 5
1878 2 2.6 -7.8 0 0 0 0 1 5
1879 2 2.8 -7.8 0 0 0 0 1 5
1912 2 2.6 -7.6 0 0 0 0 1 5
1913 2 2.8 -7.6 0 0 0 0 1 5
1946 2 2.6 -7.4 0 0 0 0 0.999147 5
1947 2 2.8 -7.4 0 0 0 0 1.00202 5
1880 2 3 -7.8 0 0 0 0 1 5
1914 2 3 -7.6 0 0 0 0 1 5
1948 2 3 -7.4 0 0 0 0 1.00004 5
1881 2 3.2 -7.8 0 0 0 0 1 5
1915 2 3.2 -7.6 0 0 0 0 1 5
1949 2 3.2 -7.4 0 0 0 0 1.00118 5
1882 2 3.4 -7.8 0 0 0 0 1 5
1916 2 3.4 -7.6 0 0 0 0 1 5
1950 2 3.4 -7.4 0 0 0 0 1.0016 5
1883 2 3.6 -7.8 0 0 0 0 1 5
1917 2 3.6 -7.6 0 0 0 0 1 5
1951 2 3.6 -7.4 0 0 0 0 1.00259 5
1884 2 3.8 -7.8 0 0 0 0 1 5
1918 2 3.8 -7.6 0 0 0 0 1 5
1952 2 3.8 -7.4 0 0 0 0 1.02983 5
1885 2 4 -7.8 0 0 0 0 1 5
1886 2 4.2 -7.8 0 0 0 0 1 5
1919 2 4 -7.6 0 0 0 0 1 5
1920 2 4.2 -7.6 0 0 0 0 1 5
1953 2 4 -7.4 0 0 0 0 1.04178 5
1954 2 4.2 -7.4 0 0 0 0 1.05315 5
1887 2 4.4 -7.8 0 0 0 0 1 5
1888 2 4.6 -7.8 0 0 0 0 1 5
1921 2 4.4 -7.6 0 0 0 0 1 5
1922 2 4.6 -7.6 0 0 0 0 1 5
1955 2 4.4 -7.4 0 0 0 0 1.04674 5
1956 2 4.6 -7.4 0 0 0 0 1.04565 5
1889 2 4.8 -7.8 0 0 0 0 1 5
1890 2 5 -7.8 0 0 0 0 1 5
1923 2 4.8 -7.6 0 0 0 0 1 5
1924 2 5 -7.6 0 0 0 0 1 5
1957 2 4.8 -7.4 0 0 0 0 1.04552 5
1958 2 5 -7.4 0 0 0 0 1.04506 5
1891 2 5.2 -7.8 0 0 0 0 1 5
1892 2 5.4 -7.8 0 0 0 0 1 5
1925 2 5.2 -7.6 0 0 0 0 1 5
1926 2 5.4 -7.6 0 0 0 0 1 5
1959 2 5.2 -7.4 0 0 0 0 1.04491 5
1960 2 5.4 -7.4 0 0 0 0 1.04464 5
1893 2 5.6 -7.8 0 0 0 0 1 5
1927 2 5.6 -7.6 0 0 0 0 1 5
1961 2 5.6 -7.4 0 0 0 0 1.04438 5
1894 2 5.8 -7.8 0 0 0 0 1 5
1928 2 5.8 -7.6 0 0 0 0 1 5
1962 2 5.8 -7.4 0 0 0 0 1.04405 5
1895 2 6 -7.8 0 0 0 0 1 5
1929 2 6 -7.6 0 0 0 0 1 5
1963 2 6 -7.4 0 0 0 0 1.04384 5
1896 2 6.2 -7.8 0 0 0 0 1 5
1897 2 6.4 -7.8 0 0 0 0 1 5
1930 2 6.2 -7.6 0 0 0 0 1 5
1931 2 6.4 -7.6 0 0 0 0 1 5
1964 2 6.2 -7.4 0 0 0 0 1.04386 5
1965 2 6.4 -7.4 0 0 0 0 1.04373 5
1898 2 6.6 -7.8 0 0 0 0 1 5
1899 2 6.8 -7.8 0 0 0 0 1 5
1932 2 6.6 -7.6 0 0 0 0 1 5
1933 2 6.8 -7.6 0 0 0 0 1 5
1966 2 6.6 -7.4 0 0 0 0 1.04353 5
1967 2 6.8 -7.4 0 0 0 0 1.04338 5
1900 2 7 -7.8 0 0 0 0 1 5
1901 2 7.2 -7.8 0 0 0 0 1 5
1934 2 7 -7.6 0 0 0 0 1 5
1935 2 7.2 -7.6 0 0 0 0 1 5
1968 2 7 -7.4 0 0 0 0 1.04331 5
1969 2 7.2 -7.4 0 0 0 0 1.04316 5
1977 2 2 -7.2 0 0 0 0 1.01221 5
2011 2 2 -7 0 0 0 0 1.01018 5
1978 2 2.2 -7.2 0 0 0 0 1.00281 5
1979 2 2.4 -7.2 0 0 0 0 0.998522 5
2012 2 2.2 -7 0 0 0 0 1.00346 5
2013 2 2.4 -7 0 0 0 0 0.999715 5
1980 2 2.6 -7.2 0 0 0 0 0.999493 5
1981 2 2.8 -7.2 0 0 0 0 1.00034 5
2014 2 2.6 -7 0 0 0 0 0.999874 5
2015 2 2.8 -7 0 0 0 0 1.00023 5
1982 2 3 -7.2 0 0 0 0 0.999543 5
2016 2 3 -7 0 0 0 0 0.99982 5
1983 2 3.2 -7.2 0 0 0 0 1.00047 5
2017 2 3.2 -7 0 0 0 0 1.00023 5
1984 2 3.4 -7.2 0 0 0 0 1.00178 5
2018 2 3.4 -7 0 0 0 0 1.00122 5
1985 2 3.6 -7.2 0 0 0 0 1.00369 5
2019 2 3.6 -7 0 0 0 0 1.00436 5
1986 2 3.8 -7.2 0 0 0 0 1.02139 5
2020 2 3.8 -7 0 0 0 0 1.01878 5
1987 2 4 -7.2 0 0 0 0 1.03855 5
1988 2 4.2 -7.2 0 0 0 0 1.05078 5
2021 2 4 -7 0 0 0 0 1.03513 5
2022 2 4.2 -7 0 0 0 0 1.04832 5
1989 2 4.4 -7.2 0 0 0 0 1.05025 5
1990 2 4.6 -7.2 0 0 0 0 1.04786 5
2023 2 4.4 -7 0 0 0 0 1.05221 5
2024 2 4.6 -7 0 0 0 0 1.04941 5
1991 2 4.8 -7.2 0 0 0 0 1.04667 5
1992 2 5 -7.2 0 0 0 0 1.04631 5
2025 2 4.8 -7 0 0 0 0 1.04762 5
2026 2 5 -7 0 0 0 0 1.04731 5
1993 2 5.2 -7.2 0 0 0 0 1.04619 5
1994 2 5.4 -7.2 0 0 0 0 1.04595 5
2027 2 5.2 -7 0 0 0 0 1.04727 5
2028 2 5.4 -7 0 0 0 0 1.047 5
1995 2 5.6 -7.2 0 0 0 0 1.04565 5
2029 2 5.6 -7 0 0 0 0 1.04665 5
1996 2 5.8 -7.2 0 0 0 0 1.04532 5
2030 2 5.8 -7 0 0 0 0 1.04628 5
1997 2 6 -7.2 0 0 0 0 1.04509 5
2031 2 6 -7 0 0 0 0 1.04596 5
1998 2 6.2 -7.2 0 0 0 0 1.04492 5
1999 2 6.4 -7.2 0 0 0 0 1.04481 5
2032 2 6.2 -7 0 0 0 0 1.0458 5
2033 2 6.4 -7 0 0 0 0 1.04573 5
2000 2 6.6 -7.2 0 0 0 0 1.04464 5
2001 2 6.8 -7.2 0 0 0 0 1.04448 5
2034 2 6.6 -7 0 0 0 0 1.04557 5
2035 2 6.8 -7 0 0 0 0 1.04536 5
2002 2 7 -7.2 0 0 0 0 1.04433 5
2003 2 7.2 -7.2 0 0 0 0 1.04424 5
2036 2 7 -7 0 0 0 0 1.04521 5
2037 2 7.2 -7 0 0 0 0 1.04512 5
15600 1 2.02318 -6.58073 0.02 0 -0.00209978 -0.000421187 1 2
15599 1 2.21134 -6.76992 0.02 0 -0.00302001 -0.000191716 1 2
15601 1 2.23438 -6.58688 0.02 0 0.000213803 0.000227375 1 2
15602 1 2.43028 -6.75274 0.02 0 -0.00243902 -0.000307312 1 2
15604 1 2.43801 -6.56746 0.02 0 0.000182626 0.000340515 1 2
15603 1 2.6396 -6.73947 0.02 0 -0.00249116 -0.000393548 1 2
15605 1 2.63634 -6.55685 0.02 0 0.000151662 0.000303572 1 2
15754 1 2.83809 -6.74787 0.02 0 -0.00288245 -0.00040068 1 2
15756 1 2.8365 -6.55697 0.02 0 0.000173141 0.000341373 1 2
15755 1 3.03089 -6.7403 0.02 0 -0.00259146 -0.000424189 1 2
15757 1 3.03991 -6.5555 0.02 0 0.000170554 0.000397214 1 2
15758 1 3.22488 -6.74105 0.02 0 -0.00274732 -0.000503611 1 2
15760 1 3.25064 -6.56028 0.02 0 0.000156937 0.000489868 1 2
15759 1 3.42568 -6.75011 0.02 0 -0.00296143 -0.00041746 1 2
15761 1 3.45906 -6.56898 0.02 0 7.90971e-05 0.000554535 1 2
15762 1 3.63839 -6.76334 0.02 0 -0.00467653 0.000134907 1 2
15764 1 3.65347 -6.56817 0.02 0 -0.00142511 0.000519612 1 2
15347 1 3.99993 -6.75321 0.02 0 -0.0136486 8.63886e-05 1.03711 2
15350 1 3.99963 -6.54817 0.02 0 -0.00436466 0.000659817 1.03229 2
15763 1 3.84217 -6.74804 0.02 0 -0.00926624 -6.23248e-05 1 2
15765 1 3.84536 -6.56085 0.02 0 -0.00493151 0.00061289 1 2
15348 1 4.13077 -6.71254 0.00705981 0.0017567 0.00224201 0.00188924 1.05334 0
15351 1 4.15126 -6.51779 0.0107061 0.00305146 0.000267567 3.99808e-05 1.05482 0
15349 1 4.23324 -6.65008 0.00810969 0.0018449 0.000761053 0.000677742 1.05603 0
15352 1 4.00004 -6.48146 0.0181433 0.000261681 -0.0074267 0.00104673 1.03611 0
15355 1 4.29977 -6.49434 0.0107311 0.00312665 0.000108382 -9.57375e-06 1.05543 0
15353 1 4.32383 -6.71695 0.00579229 -0.000209126 0.000610865 0.000344944 1.05603 0
15354 1 4.41596 -6.57921 0.0102901 0.00186507 9.12678e-05 5.4048e-05 1.0511 0
15363 1 4.00012 -6.65244 0.0177177 0.000317041 -0.00912912 0.00126817 1.03698 0
15362 1 4.0004 -6.85062 0.0168027 -0.000297554 -0.012789 -0.00119021 1.04844 0
15357 1 4.52056 -6.65968 0.00792012 0.000911803 2.78101e-05 2.36929e-05 1.04861 0
15358 1 4.63321 -6.49934 0.0110322 0.00211826 1.33986e-05 3.05858e-05 1.04702 0
14630 1 4.47767 -6.8145 0.00418921 -0.00107977 9.97865e-05 2.94922e-05 1.05328 0
15361 1 4.67442 -6.62752 0.00797692 0.00116955 9.7087e-06 2.12799e-05 1.04686 0
15365 1 4.80302 -6.58177 0.00823885 0.00127302 9.56782e-06 2.42376e-05 1.04662 0
15011 1 4.67764 -6.78747 0.00410715 -0.000362283 -5.33125e-06 6.89583e-06 1.04989 0
15366 1 4.94178 -6.56901 0.007662 0.00112648 7.43539e-06 2.42206e-05 1.04667 0
15019 1 4.84533 -6.72747 0.00448968 0.000216484 6.58341e-07 1.20852e-05 1.04756 0
15015 1 5.08213 -6.61887 0.00594627 0.000668169 3.55647e-06 1.86587e-05 1.04656 0
15023 1 5.21396 -6.61307 0.00562856 0.000552905 2.82374e-06 1.71578e-05 1.04628 0
14789 1 4.97275 -6.77277 0.00307804 -0.000455542 -9.14801e-07 9.68843e-06 1.04886 0
14793 1 5.13462 -6.78552 0.0025884 -0.000657452 -1.82355e-06 8.37131e-06 1.04905 0
15026 1 5.34228 -6.60173 0.00550177 0.000477656 3.26837e-06 1.57878e-05 1.04595 0
14631 1 5.46919 -6.5285 0.00645016 0.000576238 5.75747e-06 1.6621e-05 1.04568 0
14324 1 5.31406 -6.77709 0.00247722 -0.000603673 -1.70569e-06 7.60297e-06 1.04843 0
14317 1 5.51474 -6.64789 0.00424012 0.000234845 3.48597e-06 1.05756e-05 1.0458 0
13969 1 5.66228 -6.61888 0.00447806 0.000247906 5.85713e-06 9.42125e-06 1.04546 0
13971 1 5.50139 -6.79967 0.00205569 -0.00079082 -6.11553e-07 4.90481e-06 1.04845 0
14790 1 5.82127 -6.60853 0.00436779 0.000205198 8.34516e-06 7.29746e-06 1.04523 0
13644 1 5.69291 -6.77227 0.00218574 -0.000581096 1.47857e-06 4.08844e-06 1.04751 0
14320 1 5.95935 -6.58881 0.00445001 0.00019789 1.07938e-05 5.67695e-06 1.04503 0
13274 1 5.85886 -6.79017 0.00185815 -0.000796821 2.49658e-06 2.0941e-06 1.04776 0
13289 1 6.01913 -6.74039 0.00227361 -0.000393283 5.69759e-06 1.98458e-06 1.04641 0
13979 1 6.10217 -6.59283 0.00415764 0.000160516 1.23446e-05 3.72293e-06 1.04488 0
13975 1 6.23797 -6.57938 0.00416337 0.000176607 1.42878e-05 2.29687e-06 1.0447 0
12949 1 6.16699 -6.77574 0.00174341 -0.000670428 5.63778e-06 1.3193e-07 1.047 0
13983 1 6.35474 -6.60135 0.00371238 0.000144571 1.42129e-05 8.00724e-07 1.04461 0
13641 1 6.46945 -6.61115 0.00342979 0.000122513 1.41999e-05 -2.95373e-07 1.0445 0
12617 1 6.33396 -6.79137 0.00152905 -0.000740491 6.24978e-06 -1.02762e-06 1.04708 0
13276 1 6.59741 -6.63197 0.00301412 8.53965e-05 1.35042e-05 -1.23386e-06 1.04443 0
11882 1 6.53093 -6.79886 0.00139128 -0.000741758 6.98853e-06 -1.96005e-06 1.04692 0
12936 1 6.74157 -6.63465 0.00283094 7.47003e-05 1.29835e-05 -2.00856e-06 1.04431 0
12953 1 6.8845 -6.62456 0.00283498 8.49459e-05 1.25573e-05 -2.40284e-06 1.04415 0
11552 1 6.73799 -6.80369 0.00125012 -0.000760499 7.02113e-06 -2.46994e-06 1.04675 0
11164 1 6.94054 -6.78523 0.00127527 -0.000631055 7.05082e-06 -2.5285e-06 1.04625 0
12604 1 7.02856 -6.61323 0.00286433 9.42319e-05 1.17133e-05 -2.64975e-06 1.04402 0
12941 1 7.16632 -6.61544 0.00275651 8.68185e-05 1.00993e-05 -2.62418e-06 1.04397 0
11544 1 7.3062 -6.61566 0.00269067 7.55865e-05 8.27781e-06 -2.39378e-06 1.04393 0
11323 1 7.12814 -6.79855 0.00113035 -0.000757729 5.84567e-06 -2.36373e-06 1.04645 0
10507 1 7.31795 -6.78597 0.00117589 -0.000694114 4.82161e-06 -2.06397e-06 1.04622 0
15606 1 2.0587 -6.40681 0.02 0 0.000289607 0.00014608 1 2
15607 1 2.08518 -6.22242 0.02 0 4.0539e-05 3.39208e-05 1 2
15608 1 2.26334 -6.40373 0.02 0 0.000332433 0.000296814 1 2
15609 1 2.29303 -6.21248 0.02 0 2.56692e-05 3.99359e-05 1 2
15610 1 2.4666 -6.37967 0.02 0 0.000120904 0.000164142 1 2
15611 1 2.50528 -6.19565 0.02 0 7.57645e-06 1.81747e-05 1 2
15769 1 2.72365 -6.19087 0.02 0 6.52652e-06 1.65407e-05 1 2
15770 1 2.67236 -6.37223 0.02 0 8.46655e-05 0.000142091 1 2
15766 1 2.87787 -6.36827 0.02 0 8.21491e-05 0.000145087 1 2
15768 1 2.93921 -6.18388 0.02 0 5.79841e-06 1.43281e-05 1 2
15767 1 3.08363 -6.37473 0.02 0 8.60694e-05 0.000159888 1 2
15771 1 3.14465 -6.19169 0.02 0 6.6471e-06 1.62454e-05 1 2
15772 1 3.28975 -6.37712 0.02 0 8.8923e-05 0.000168743 1 2
15774 1 3.33987 -6.18031 0.02 0 4.97152e-06 1.32809e-05 1 2
15773 1 3.48653 -6.38113 0.02 0 -1.08452e-05 0.000165201 1 2
15775 1 3.52967 -6.18345 0.02 0 -0.000251603 2.13427e-05 1 2
15776 1 3.68051 -6.37127 0.02 0 -0.00186664 0.00011112 1 2
15778 1 3.71815 -6.17064 0.02 0 -0.00247291 0.000177449 1 2
15369 1 4.0003 -6.3712 0.0181683 0.000164505 -0.00732695 0.000658021 1.03543 0
15368 1 3.99978 -6.1116 0.02 0 -0.0047343 0.000581746 1.03435 2
15777 1 3.86904 -6.36378 0.02 0 -0.00559777 1.15988e-05 1 2
15779 1 3.89986 -6.14857 0.02 0 -0.0064871 0.000420699 1 2
15370 1 4.02774 -6.26854 0.0104923 0.00122776 0.000290839 0.00016116 1.04124 0
15356 1 4.51495 -6.44105 0.0124874 0.00270371 2.08898e-05 3.33433e-05 1.04829 0
15360 1 4.39671 -6.37129 0.0129276 0.0033229 4.12777e-05 1.50737e-05 1.05125 0
15371 1 4.00013 -6.2806 0.0180006 5.52308e-05 -0.0079976 0.000220923 1.03582 0
15373 1 4.32971 -6.24914 0.0121557 0.00367431 3.13538e-05 7.03541e-05 1.05287 0
15375 1 4.29866 -6.09936 0.0119259 0.00344173 -8.84624e-05 4.74174e-05 1.05267 0
15374 1 4.21229 -6.36349 0.0106125 0.00327461 0.000186003 -3.38024e-05 1.05602 0
15377 1 4.51825 -6.25042 0.0139916 0.00355325 1.7815e-05 4.62884e-05 1.04766 0
15379 1 4.45124 -6.11612 0.0142471 0.003906 3.42543e-06 4.83288e-05 1.04813 0
15359 1 4.65056 -6.31462 0.0131025 0.00303835 1.53706e-05 4.40092e-05 1.04695 0
15367 1 4.767 -6.39405 0.0115826 0.00237847 1.34074e-05 3.84657e-05 1.04691 0
15378 1 4.64413 -6.13378 0.0141102 0.00375847 1.26297e-05 5.12673e-05 1.04658 0
15381 1 4.77888 -6.19945 0.0131936 0.00318713 1.16776e-05 4.80515e-05 1.04692 0
15028 1 4.89985 -6.4113 0.010511 0.00192583 1.077e-05 3.51339e-05 1.04697 0
15383 1 4.90832 -6.04374 0.0133537 0.00338136 5.32453e-06 4.90444e-05 1.0469 0
15386 1 4.91049 -6.22792 0.0123187 0.00266274 9.51476e-06 4.42868e-05 1.04715 0
15014 1 5.06968 -6.47079 0.0087499 0.00130887 6.88174e-06 2.84816e-05 1.04671 0
15382 1 5.03666 -6.10705 0.0125668 0.0027779 5.61849e-06 4.46291e-05 1.04702 0
15364 1 5.03019 -6.30695 0.0110148 0.00201438 8.42322e-06 3.77525e-05 1.04709 0
15012 1 5.15398 -6.18993 0.0115704 0.0021261 6.4775e-06 3.83123e-05 1.04691 0
15013 1 5.17625 -6.37521 0.00960536 0.00142627 6.91648e-06 3.07045e-05 1.04671 0
15016 1 5.28369 -6.25705 0.0104931 0.00158757 7.01566e-06 3.17052e-05 1.04663 0
15034 1 5.32065 -6.08804 0.0117574 0.00208063 5.14778e-06 3.44739e-05 1.04649 0
15018 1 5.30464 -6.44148 0.00825484 0.00100222 6.15786e-06 2.42426e-05 1.04622 0
15033 1 5.46796 -6.07249 0.0114002 0.00180678 6.4673e-06 2.91707e-05 1.04623 0
15017 1 5.41982 -6.25198 0.0100604 0.00133504 7.85185e-06 2.70892e-05 1.04635 0
15021 1 5.56099 -6.19676 0.0101058 0.00126016 9.47042e-06 2.35218e-05 1.04615 0
15022 1 5.47374 -6.3801 0.00847725 0.000917279 8.06552e-06 2.16535e-05 1.04601 0
15020 1 5.65901 -6.06924 0.0108355 0.00146569 9.83974e-06 2.25195e-05 1.04599 0
15025 1 5.68122 -6.26521 0.00907366 0.000917174 1.16677e-05 1.83362e-05 1.04591 0
15027 1 5.61177 -6.42477 0.0074975 0.000669643 9.39851e-06 1.655e-05 1.04566 0
14635 1 5.73826 -6.47409 0.00652331 0.000490978 1.05644e-05 1.22328e-05 1.04535 0
15024 1 5.79208 -6.09754 0.0102282 0.00117802 1.27071e-05 1.79733e-05 1.04585 0
15029 1 5.90459 -6.18055 0.00921567 0.00084452 1.54235e-05 1.36144e-05 1.0457 0
14629 1 5.81548 -6.31073 0.00821586 0.000682278 1.38092e-05 1.37502e-05 1.04565 0
14638 1 5.89836 -6.43555 0.00661226 0.000439078 1.37712e-05 9.6349e-06 1.04524 0
14628 1 6.04468 -6.07078 0.00975192 0.000930171 1.68477e-05 1.17967e-05 1.04555 0
14641 1 6.03155 -6.24697 0.00827575 0.000605266 1.74021e-05 9.67566e-06 1.04548 0
14633 1 6.17475 -6.17117 0.00861243 0.000620151 1.91427e-05 7.73385e-06 1.04538 0
14634 1 6.03472 -6.38918 0.00682424 0.000412805 1.64283e-05 7.63025e-06 1.04518 0
14312 1 6.16171 -6.43229 0.006077 0.000321502 1.72375e-05 4.84761e-06 1.04492 0
14636 1 6.34085 -6.09948 0.00883722 0.000612176 2.01073e-05 5.78114e-06 1.04523 0
14639 1 6.25065 -6.28872 0.00737115 0.000417248 1.96277e-05 5.00724e-06 1.04515 0
14791 1 6.41014 -6.22401 0.00764251 0.000407028 2.0669e-05 3.26783e-06 1.04508 0
14313 1 6.33483 -6.42228 0.00586138 0.000282647 1.87629e-05 2.46244e-06 1.04476 0
14322 1 6.57539 -6.20968 0.00746114 0.000342065 2.06268e-05 1.47986e-06 1.04493 0
14316 1 6.47823 -6.35295 0.00631212 0.000278368 2.00496e-05 1.23371e-06 1.04478 0
14328 1 6.55452 -6.45598 0.00515251 0.000222287 1.8617e-05 -2.08945e-07 1.04446 0
14314 1 6.72178 -6.19845 0.00731545 0.000287193 1.9843e-05 2.98429e-07 1.0448 0
14325 1 6.71765 -6.34273 0.00602691 0.000216806 1.93055e-05 -8.46747e-07 1.04457 0
13649 1 6.70728 -6.48749 0.00460343 0.000188687 1.75163e-05 -1.54824e-06 1.04425 0
14321 1 6.90335 -6.18084 0.00720209 0.00022585 1.80084e-05 -5.30509e-07 1.04466 0
14329 1 6.89872 -6.32455 0.00595004 0.000175578 1.76536e-05 -1.6267e-06 1.04445 0
13640 1 6.87617 -6.4711 0.00456859 0.000170468 1.64603e-05 -2.25646e-06 1.04414 0
14327 1 7.06837 -6.14691 0.0072784 0.000181406 1.56837e-05 -6.31802e-07 1.04455 0
13970 1 7.0711 -6.29886 0.00598383 0.000139205 1.5331e-05 -1.81871e-06 1.04437 0
13984 1 7.04582 -6.45341 0.0045723 0.000151443 1.46188e-05 -2.53999e-06 1.04404 0
14326 1 7.23248 -6.12752 0.00726767 0.000129548 1.28967e-05 -4.74147e-07 1.04444 0
13974 1 7.23156 -6.2884 0.00592398 0.000103381 1.26159e-05 -1.67275e-06 1.04428 0
13280 1 7.20774 -6.44885 0.00448175 0.000131623 1.21619e-05 -2.45602e-06 1.04396 0
14868 1 5.86316 -0.0603217 0.0127691 0.000112056 -1.90677e-05 -1.51878e-05 1.04344 0
14860 1 5.42485 -0.0355152 0.0126999 0.000139658 -1.83242e-05 -1.6064e-05 1.04322 0
14861 1 6.02589 -0.104603 0.0127874 8.48881e-05 -1.88312e-05 -1.47111e-05 1.04351 0
15612 1 2.12059 -6.03472 0.02 0 8.2448e-07 9.8325e-07 1 2
15613 1 2.15647 -5.84117 0.02 0 1.49229e-09 1.8924e-09 1 2
15614 1 2.32647 -6.01924 0.02 0 1.19417e-07 3.43477e-07 1 2
15615 1 2.3512 -5.81749 0.02 0 8.92816e-11 4.53584e-10 1 2
15616 1 2.53657 -6.01437 0.02 0 7.1999e-08 2.75184e-07 1 2
15617 1 2.54536 -5.82674 0.02 0 7.95216e-11 4.2669e-10 1 2
15782 1 2.74843 -6.00636 0.02 0 5.50869e-08 2.26111e-07 1 2
15783 1 2.74073 -5.81326 0.02 0 3.53098e-11 1.94896e-10 1 2
15781 1 2.93565 -5.79328 0.02 0 1.08262e-11 6.88835e-11 1 2
15780 1 2.95047 -5.99117 0.02 0 3.04228e-08 1.26752e-07 1 2
15784 1 3.1306 -5.79598 0.02 0 1.31547e-11 8.49423e-11 1 2
15785 1 3.14717 -5.99602 0.02 0 3.57765e-08 1.56665e-07 1 2
15788 1 3.32484 -5.76887 0.02 0 -7.94191e-10 5.25568e-11 1 2
15786 1 3.33794 -5.97428 0.02 0 -2.53929e-09 6.22676e-08 1 2
15787 1 3.52606 -5.97736 0.02 0 -0.000209716 8.40984e-07 1 2
15789 1 3.51729 -5.76878 0.02 0 -0.000178901 -2.61531e-06 1 2
15790 1 3.71393 -5.96884 0.02 0 -0.00212589 4.74983e-05 1 2
15792 1 3.7105 -5.76381 0.02 0 -0.00227204 -0.000147217 1 2
15389 1 4.00031 -5.8906 0.0181768 0.000133565 -0.00729277 0.000534261 1.03352 0
15392 1 3.99978 -5.66403 0.02 0 -0.00503015 0.000176363 1.03367 2
15791 1 3.89391 -5.92677 0.02 0 -0.0056335 0.000217113 1 2
15793 1 3.89228 -5.69996 0.02 0 -0.00674849 -0.000726906 1 2
15372 1 3.99964 -6.05807 0.02 0 -0.00479445 0.000523604 1.03469 2
15376 1 4.16225 -5.97587 0.0109487 0.00199445 -6.25104e-06 -0.000273205 1.05163 0
15388 1 4.17563 -6.15493 0.0106169 0.00222153 -0.000228195 0.00023479 1.05344 0
15390 1 4.00016 -5.85177 0.0181795 0.000109624 -0.00728197 0.000438497 1.03416 0
15391 1 4.25735 -5.89522 0.0114263 0.00317447 0.000100132 -1.33136e-05 1.05191 0
15393 1 4.01577 -5.64076 0.0097793 0.00110176 -0.000197688 -0.000135792 1.03741 0
15394 1 4.26661 -5.58866 0.0105989 0.00257619 -6.89634e-05 2.48373e-06 1.04927 0
15395 1 4.3247 -5.78733 0.0122577 0.00365197 3.36109e-05 8.3106e-05 1.04945 0
15397 1 4.163 -5.73764 0.0102079 0.00214417 -3.13206e-05 0.000257752 1.04962 0
15396 1 4.51495 -5.83073 0.0143734 0.00412499 -9.82093e-07 5.28965e-05 1.04579 0
15398 1 4.39147 -5.67813 0.0133039 0.00358815 -2.46326e-05 5.57049e-05 1.04695 0
15399 1 4.40302 -5.95559 0.0139477 0.00394467 1.5628e-05 3.82864e-05 1.04833 0
15401 1 4.53633 -5.66884 0.014212 0.00396999 -1.39873e-05 5.20867e-05 1.04509 0
15380 1 4.55995 -6.00523 0.0145061 0.00409528 5.97068e-06 5.31609e-05 1.04627 0
15384 1 4.76977 -6.01896 0.0139491 0.00381792 6.12453e-06 5.18525e-05 1.04655 0
15400 1 4.66741 -5.90487 0.0143898 0.00415662 1.48084e-06 5.28382e-05 1.04592 0
15402 1 4.8179 -5.6392 0.0142415 0.00414481 -8.34165e-06 4.4913e-05 1.0458 0
15403 1 4.81456 -5.83585 0.0141146 0.00405567 -8.94442e-07 4.97647e-05 1.04624 0
15405 1 4.68586 -5.7459 0.0143561 0.00419428 -5.90301e-06 5.07659e-05 1.04551 0
15385 1 4.9481 -5.87983 0.0137228 0.00371682 5.08766e-07 4.74907e-05 1.0466 0
15407 1 4.94282 -5.70745 0.0140262 0.0039853 -4.56678e-06 4.37425e-05 1.04625 0
15030 1 5.1938 -6.01764 0.0125753 0.00264928 3.04453e-06 4.03814e-05 1.04663 0
15032 1 5.07625 -5.93089 0.0132678 0.00325589 1.1982e-06 4.44057e-05 1.04666 0
15404 1 5.08498 -5.7329 0.0138039 0.00367233 -3.84697e-06 4.08013e-05 1.04629 0
15036 1 5.19944 -5.81873 0.0134072 0.00321241 -1.76055e-06 3.92336e-05 1.04629 0
15387 1 5.31474 -5.89614 0.012853 0.00271764 9.04638e-07 3.60424e-05 1.04624 0
15408 1 5.26513 -5.6763 0.0137139 0.00335339 -4.87027e-06 3.48778e-05 1.04601 0
15031 1 5.44761 -5.90992 0.0124428 0.0023599 2.86164e-06 3.13033e-05 1.04608 0
15038 1 5.5926 -5.93455 0.0119123 0.00198153 5.94666e-06 2.62579e-05 1.04596 0
15051 1 5.40843 -5.72954 0.0133056 0.00291274 -1.7712e-06 3.17233e-05 1.04592 0
15035 1 5.55358 -5.77079 0.0128331 0.0024916 1.72036e-06 2.7768e-05 1.04584 0
15055 1 5.55067 -5.60121 0.0134613 0.00285511 -1.69183e-06 2.65714e-05 1.04569 0
15037 1 5.74378 -5.90587 0.011675 0.00177496 8.69342e-06 2.1526e-05 1.04578 0
15039 1 5.69328 -5.74114 0.0126492 0.00226763 4.37721e-06 2.35922e-05 1.0457 0
15045 1 5.9135 -5.98633 0.0107094 0.00129389 1.35347e-05 1.61355e-05 1.04566 0
15040 1 5.83067 -5.68099 0.0126215 0.00212535 6.50824e-06 2.02785e-05 1.04555 0
15041 1 5.87765 -5.83603 0.0117407 0.00171426 1.03252e-05 1.84294e-05 1.04561 0
15056 1 5.97002 -5.61731 0.0126236 0.00198656 8.62044e-06 1.76371e-05 1.04541 0
15047 1 6.01741 -5.76738 0.0117993 0.00162975 1.1971e-05 1.57379e-05 1.04544 0
14643 1 6.20205 -6.00538 0.0098648 0.00090281 1.81603e-05 9.41263e-06 1.04535 0
15042 1 6.07489 -5.90417 0.0108571 0.00126371 1.51374e-05 1.31954e-05 1.04544 0
15044 1 6.15475 -5.68192 0.0119634 0.00156774 1.30682e-05 1.38277e-05 1.04528 0
14640 1 6.51214 -6.06046 0.00880157 0.000548733 2.03069e-05 3.8892e-06 1.04505 0
15046 1 6.22298 -5.82487 0.0110247 0.00122456 1.60762e-05 1.118e-05 1.04526 0
14632 1 6.35063 -5.93967 0.0100094 0.000878067 1.87194e-05 7.64995e-06 1.04518 0
15048 1 6.311 -5.63612 0.0119046 0.00140341 1.45771e-05 1.17429e-05 1.04512 0
14645 1 6.37986 -5.77207 0.0110292 0.00111446 1.69582e-05 9.22258e-06 1.04509 0
14637 1 6.50262 -5.90239 0.00996966 0.000793459 1.899e-05 5.96946e-06 1.04502 0
14644 1 6.53302 -5.73435 0.0109783 0.000986396 1.73541e-05 7.63133e-06 1.04495 0
14319 1 6.81315 -6.06296 0.00827591 0.00035982 1.88363e-05 1.11164e-06 1.04477 0
14648 1 6.67375 -5.67928 0.011074 0.000890188 1.69731e-05 6.74904e-06 1.04482 0
14653 1 6.66786 -6.0195 0.00883708 0.000499272 1.96959e-05 2.74142e-06 1.04489 0
14649 1 6.65877 -5.86254 0.00996556 0.000705332 1.85771e-05 4.72299e-06 1.04487 0
14652 1 6.80359 -5.78322 0.0102598 0.000659313 1.73899e-05 4.42464e-06 1.04473 0
14792 1 6.8525 -5.91635 0.00930027 0.00048983 1.78378e-05 2.52986e-06 1.04471 0
14795 1 6.95669 -5.70171 0.0105644 0.000585361 1.58079e-05 4.31147e-06 1.04459 0