ITEM: TIMESTEP
95000
ITEM: NUMBER OF ATOMS
10352
ITEM: BOX BOUNDS ff ff pp
0.0000000000000000e+00 2.2000000000000000e+01
-1.0000000000000000e+01 1.0000000000000000e+01
-2.0000000000000000e-02 2.0000000000000000e-02
ITEM: ATOMS id type x y vx vy fx fy c_den c_phase
1501 2 2 -10 0 0 0 0 1 4
1551 2 2 -9.8 0 0 0 0 1 4
1601 2 2 -9.6 0 0 0 0 1 4
1502 2 2.2 -10 0 0 0 0 1 4
1503 2 2.4 -10 0 0 0 0 1 4
1552 2 2.2 -9.8 0 0 0 0 1 4
1553 2 2.4 -9.8 0 0 0 0 1 4
1602 2 2.2 -9.6 0 0 0 0 1 4
1603 2 2.4 -9.6 0 0 0 0 1 4
1504 2 2.6 -10 0 0 0 0 1 4
1505 2 2.8 -10 0 0 0 0 1 4
1554 2 2.6 -9.8 0 0 0 0 1 4
1555 2 2.8 -9.8 0 0 0 0 1 4
1604 2 2.6 -9.6 0 0 0 0 1 4
1605 2 2.8 -9.6 0 0 0 0 1 4
1506 2 3 -10 0 0 0 0 1 4
1507 2 3.2 -10 0 0 0 0 1 4
1556 2 3 -9.8 0 0 0 0 1 4
1557 2 3.2 -9.8 0 0 0 0 1 4
1606 2 3 -9.6 0 0 0 0 1 4
1607 2 3.2 -9.6 0 0 0 0 1 4
1508 2 3.4 -10 0 0 0 0 1 4
1509 2 3.6 -10 0 0 0 0 1 4
1558 2 3.4 -9.8 0 0 0 0 1 4
1559 2 3.6 -9.8 0 0 0 0 1 4
1608 2 3.4 -9.6 0 0 0 0 1 4
1609 2 3.6 -9.6 0 0 0 0 1 4
1510 2 3.8 -10 0 0 0 0 1 4
1560 2 3.8 -9.8 0 0 0 0 1 4
1610 2 3.8 -9.6 0 0 0 0 1 4
1511 2 4 -10 0 0 0 0 1 4
1561 2 4 -9.8 0 0 0 0 1 4
1611 2 4 -9.6 0 0 0 0 1 4
1512 2 4.2 -10 0 0 0 0 1 4
1562 2 4.2 -9.8 0 0 0 0 1 4
1612 2 4.2 -9.6 0 0 0 0 1 4
1513 2 4.4 -10 0 0 0 0 1 4
1514 2 4.6 -10 0 0 0 0 1 4
1563 2 4.4 -9.8 0 0 0 0 1 4
1564 2 4.6 -9.8 0 0 0 0 1 4
1613 2 4.4 -9.6 0 0 0 0 1 4
1614 2 4.6 -9.6 0 0 0 0 1 4
1515 2 4.8 -10 0 0 0 0 1 4
1516 2 5 -10 0 0 0 0 1 4
1565 2 4.8 -9.8 0 0 0 0 1 4
1566 2 5 -9.8 0 0 0 0 1 4
1615 2 4.8 -9.6 0 0 0 0 1 4
1616 2 5 -9.6 0 0 0 0 1 4
1517 2 5.2 -10 0 0 0 0 1 4
1518 2 5.4 -10 0 0 0 0 1 4
1567 2 5.2 -9.8 0 0 0 0 1 4
1568 2 5.4 -9.8 0 0 0 0 1 4
1617 2 5.2 -9.6 0 0 0 0 1 4
1618 2 5.4 -9.6 0 0 0 0 1 4
1519 2 5.6 -10 0 0 0 0 1 4
1520 2 5.8 -10 0 0 0 0 1 4
1569 2 5.6 -9.8 0 0 0 0 1 4
1570 2 5.8 -9.8 0 0 0 0 1 4
1619 2 5.6 -9.6 0 0 0 0 1 4
1620 2 5.8 -9.6 0 0 0 0 1 4
1521 2 6 -10 0 0 0 0 1 4
1522 2 6.2 -10 0 0 0 0 1 4
1571 2 6 -9.8 0 0 0 0 1 4
1572 2 6.2 -9.8 0 0 0 0 1 4
1621 2 6 -9.6 0 0 0 0 1 4
1622 2 6.2 -9.6 0 0 0 0 1 4
1523 2 6.4 -10 0 0 0 0 1 4
1524 2 6.6 -10 0 0 0 0 1 4
1573 2 6.4 -9.8 0 0 0 0 1 4
1574 2 6.6 -9.8 0 0 0 0 1 4
1623 2 6.4 -9.6 0 0 0 0 1 4
1624 2 6.6 -9.6 0 0 0 0 1 4
1525 2 6.8 -10 0 0 0 0 1 4
1526 2 7 -10 0 0 0 0 1 4
1575 2 6.8 -9.8 0 0 0 0 1 4
1576 2 7 -9.8 0 0 0 0 1 4
1625 2 6.8 -9.6 0 0 0 0 1 4
1626 2 7 -9.6 0 0 0 0 1 4
1527 2 7.2 -10 0 0 0 0 1 4
1577 2 7.2 -9.8 0 0 0 0 1 4
1627 2 7.2 -9.6 0 0 0 0 1 4
1528 2 7.4 -10 0 0 0 0 1 4
1529 2 7.6 -10 0 0 0 0 1 4
1578 2 7.4 -9.8 0 0 0 0 1 4
1579 2 7.6 -9.8 0 0 0 0 1 4
1628 2 7.4 -9.6 0 0 0 0 1 4
1629 2 7.6 -9.6 0 0 0 0 1 4
1530 2 7.8 -10 0 0 0 0 1 4
1531 2 8 -10 0 0 0 0 1 4
1580 2 7.8 -9.8 0 0 0 0 1 4
1581 2 8 -9.8 0 0 0 0 1 4
1630 2 7.8 -9.6 0 0 0 0 1 4
1631 2 8 -9.6 0 0 0 0 1 4
1532 2 8.2 -10 0 0 0 0 1 4
1533 2 8.4 -10 0 0 0 0 1 4
1582 2 8.2 -9.8 0 0 0 0 1 4
1583 2 8.4 -9.8 0 0 0 0 1 4
1632 2 8.2 -9.6 0 0 0 0 1 4
1633 2 8.4 -9.6 0 0 0 0 1 4
1534 2 8.6 -10 0 0 0 0 1 4
1535 2 8.8 -10 0 0 0 0 1 4
1584 2 8.6 -9.8 0 0 0 0 1 4
1585 2 8.8 -9.8 0 0 0 0 1 4
1634 2 8.6 -9.6 0 0 0 0 1 4
1635 2 8.8 -9.6 0 0 0 0 1 4
1536 2 9 -10 0 0 0 0 1 4
1537 2 9.2 -10 0 0 0 0 1 4
1586 2 9 -9.8 0 0 0 0 1 4
1587 2 9.2 -9.8 0 0 0 0 1 4
1636 2 9 -9.6 0 0 0 0 1 4
1637 2 9.2 -9.6 0 0 0 0 1 4
1538 2 9.4 -10 0 0 0 0 1 4
1539 2 9.6 -10 0 0 0 0 1 4
1588 2 9.4 -9.8 0 0 0 0 1 4
1589 2 9.6 -9.8 0 0 0 0 1 4
1638 2 9.4 -9.6 0 0 0 0 1 4
1639 2 9.6 -9.6 0 0 0 0 1 4
1540 2 9.8 -10 0 0 0 0 1 4
1590 2 9.8 -9.8 0 0 0 0 1 4
1640 2 9.8 -9.6 0 0 0 0 1 4
1541 2 10 -10 0 0 0 0 1 4
1591 2 10 -9.8 0 0 0 0 1 4
1641 2 10 -9.6 0 0 0 0 1 4
1542 2 10.2 -10 0 0 0 0 1 4
1592 2 10.2 -9.8 0 0 0 0 1 4
1642 2 10.2 -9.6 0 0 0 0 1 4
1543 2 10.4 -10 0 0 0 0 1 4
1593 2 10.4 -9.8 0 0 0 0 1 4
1643 2 10.4 -9.6 0 0 0 0 1 4
1544 2 10.6 -10 0 0 0 0 1 4
1594 2 10.6 -9.8 0 0 0 0 1 4
1644 2 10.6 -9.6 0 0 0 0 1 4
1545 2 10.8 -10 0 0 0 0 1 4
1595 2 10.8 -9.8 0 0 0 0 1 4
1645 2 10.8 -9.6 0 0 0 0 1 4
1651 2 2 -9.4 0 0 0 0 1 4
1701 2 2 -9.2 0 0 0 0 1 4
1652 2 2.2 -9.4 0 0 0 0 1 4
1653 2 2.4 -9.4 0 0 0 0 1 4
1702 2 2.2 -9.2 0 0 0 0 1 4
1703 2 2.4 -9.2 0 0 0 0 1 4
1654 2 2.6 -9.4 0 0 0 0 1 4
1655 2 2.8 -9.4 0 0 0 0 1 4
1704 2 2.6 -9.2 0 0 0 0 1 4
1705 2 2.8 -9.2 0 0 0 0 1 4
1656 2 3 -9.4 0 0 0 0 1 4
1657 2 3.2 -9.4 0 0 0 0 1 4
1706 2 3 -9.2 0 0 0 0 1 4
1707 2 3.2 -9.2 0 0 0 0 1 4
1658 2 3.4 -9.4 0 0 0 0 1 4
1659 2 3.6 -9.4 0 0 0 0 1 4
1708 2 3.4 -9.2 0 0 0 0 1 4
1709 2 3.6 -9.2 0 0 0 0 1 4
1660 2 3.8 -9.4 0 0 0 0 1 4
1710 2 3.8 -9.2 0 0 0 0 1 4
1661 2 4 -9.4 0 0 0 0 1 4
1711 2 4 -9.2 0 0 0 0 1 4
1662 2 4.2 -9.4 0 0 0 0 1 4
1712 2 4.2 -9.2 0 0 0 0 1 4
1663 2 4.4 -9.4 0 0 0 0 1 4
1664 2 4.6 -9.4 0 0 0 0 1 4
1713 2 4.4 -9.2 0 0 0 0 1 4
1714 2 4.6 -9.2 0 0 0 0 1 4
1665 2 4.8 -9.4 0 0 0 0 1 4
1666 2 5 -9.4 0 0 0 0 1 4
1715 2 4.8 -9.2 0 0 0 0 1 4
1716 2 5 -9.2 0 0 0 0 1 4
1667 2 5.2 -9.4 0 0 0 0 1 4
1668 2 5.4 -9.4 0 0 0 0 1 4
1717 2 5.2 -9.2 0 0 0 0 1 4
1718 2 5.4 -9.2 0 0 0 0 1 4
1669 2 5.6 -9.4 0 0 0 0 1 4
1670 2 5.8 -9.4 0 0 0 0 1 4
1719 2 5.6 -9.2 0 0 0 0 1 4
1720 2 5.8 -9.2 0 0 0 0 1 4
1671 2 6 -9.4 0 0 0 0 1 4
1672 2 6.2 -9.4 0 0 0 0 1 4
1721 2 6 -9.2 0 0 0 0 1 4
1722 2 6.2 -9.2 0 0 0 0 1 4
1673 2 6.4 -9.4 0 0 0 0 1 4
1674 2 6.6 -9.4 0 0 0 0 1 4
1723 2 6.4 -9.2 0 0 0 0 1 4
1724 2 6.6 -9.2 0 0 0 0 1 4
1675 2 6.8 -9.4 0 0 0 0 1 4
1676 2 7 -9.4 0 0 0 0 1 4
1725 2 6.8 -9.2 0 0 0 0 1 4
1726 2 7 -9.2 0 0 0 0 1 4
1677 2 7.2 -9.4 0 0 0 0 1 4
1727 2 7.2 -9.2 0 0 0 0 1 4
1678 2 7.4 -9.4 0 0 0 0 1 4
1679 2 7.6 -9.4 0 0 0 0 1 4
1728 2 7.4 -9.2 0 0 0 0 1 4
1729 2 7.6 -9.2 0 0 0 0 1 4
1680 2 7.8 -9.4 0 0 0 0 1 4
1681 2 8 -9.4 0 0 0 0 1 4
1730 2 7.8 -9.2 0 0 0 0 1 4
1731 2 8 -9.2 0 0 0 0 1 4
1682 2 8.2 -9.4 0 0 0 0 1 4
1683 2 8.4 -9.4 0 0 0 0 1 4
1732 2 8.2 -9.2 0 0 0 0 1 4
1733 2 8.4 -9.2 0 0 0 0 1 4
1684 2 8.6 -9.4 0 0 0 0 1 4
1685 2 8.8 -9.4 0 0 0 0 1 4
1734 2 8.6 -9.2 0 0 0 0 1 4
1735 2 8.8 -9.2 0 0 0 0 1 4
1686 2 9 -9.4 0 0 0 0 1 4
1687 2 9.2 -9.4 0 0 0 0 1 4
1736 2 9 -9.2 0 0 0 0 1 4
1737 2 9.2 -9.2 0 0 0 0 1 4
1688 2 9.4 -9.4 0 0 0 0 1 4
1689 2 9.6 -9.4 0 0 0 0 1 4
1738 2 9.4 -9.2 0 0 0 0 1 4
1739 2 9.6 -9.2 0 0 0 0 1 4
1690 2 9.8 -9.4 0 0 0 0 1 4
1740 2 9.8 -9.2 0 0 0 0 1 4
1691 2 10 -9.4 0 0 0 0 1 4
1741 2 10 -9.2 0 0 0 0 1 4
1692 2 10.2 -9.4 0 0 0 0 1 4
1742 2 10.2 -9.2 0 0 0 0 1 4
1693 2 10.4 -9.4 0 0 0 0 1 4
1743 2 10.4 -9.2 0 0 0 0 1 4
1694 2 10.6 -9.4 0 0 0 0 1 4
1744 2 10.6 -9.2 0 0 0 0 1 4
1695 2 10.8 -9.4 0 0 0 0 1 4
1745 2 10.8 -9.2 0 0 0 0 1 4
1751 2 2 -9 0 0 0 0 1 4
1801 2 2 -8.8 0 0 0 0 1 4
1752 2 2.2 -9 0 0 0 0 1 4
1753 2 2.4 -9 0 0 0 0 1 4
1802 2 2.2 -8.8 0 0 0 0 1 4
1803 2 2.4 -8.8 0 0 0 0 1 4
1754 2 2.6 -9 0 0 0 0 1 4
1755 2 2.8 -9 0 0 0 0 1 4
1804 2 2.6 -8.8 0 0 0 0 1 4
1805 2 2.8 -8.8 0 0 0 0 1 4
1756 2 3 -9 0 0 0 0 1 4
1757 2 3.2 -9 0 0 0 0 1 4
1806 2 3 -8.8 0 0 0 0 1 4
1807 2 3.2 -8.8 0 0 0 0 1 4
1758 2 3.4 -9 0 0 0 0 1 4
1759 2 3.6 -9 0 0 0 0 1 4
1808 2 3.4 -8.8 0 0 0 0 1 4
1809 2 3.6 -8.8 0 0 0 0 1 4
1760 2 3.8 -9 0 0 0 0 1 4
1810 2 3.8 -8.8 0 0 0 0 1 4
1761 2 4 -9 0 0 0 0 1 4
1811 2 4 -8.8 0 0 0 0 1 4
1762 2 4.2 -9 0 0 0 0 1 4
1812 2 4.2 -8.8 0 0 0 0 1 4
1763 2 4.4 -9 0 0 0 0 1 4
1764 2 4.6 -9 0 0 0 0 1 4
1813 2 4.4 -8.8 0 0 0 0 1 4
1814 2 4.6 -8.8 0 0 0 0 1 4
1765 2 4.8 -9 0 0 0 0 1 4
1766 2 5 -9 0 0 0 0 1 4
1815 2 4.8 -8.8 0 0 0 0 1 4
1816 2 5 -8.8 0 0 0 0 1 4
1767 2 5.2 -9 0 0 0 0 1 4
1768 2 5.4 -9 0 0 0 0 1 4
1817 2 5.2 -8.8 0 0 0 0 1 4
1818 2 5.4 -8.8 0 0 0 0 1 4
1769 2 5.6 -9 0 0 0 0 1 4
1770 2 5.8 -9 0 0 0 0 1 4
1819 2 5.6 -8.8 0 0 0 0 1 4
1820 2 5.8 -8.8 0 0 0 0 1 4
1771 2 6 -9 0 0 0 0 1 4
1772 2 6.2 -9 0 0 0 0 1 4
1821 2 6 -8.8 0 0 0 0 1 4
1822 2 6.2 -8.8 0 0 0 0 1 4
1773 2 6.4 -9 0 0 0 0 1 4
1774 2 6.6 -9 0 0 0 0 1 4
1823 2 6.4 -8.8 0 0 0 0 1 4
1824 2 6.6 -8.8 0 0 0 0 1 4
1775 2 6.8 -9 0 0 0 0 1 4
1776 2 7 -9 0 0 0 0 1 4
1825 2 6.8 -8.8 0 0 0 0 1 4
1826 2 7 -8.8 0 0 0 0 1 4
1777 2 7.2 -9 0 0 0 0 1 4
1827 2 7.2 -8.8 0 0 0 0 1 4
1778 2 7.4 -9 0 0 0 0 1 4
1779 2 7.6 -9 0 0 0 0 1 4
1828 2 7.4 -8.8 0 0 0 0 1 4
1829 2 7.6 -8.8 0 0 0 0 1 4
1780 2 7.8 -9 0 0 0 0 1 4
1781 2 8 -9 0 0 0 0 1 4
1830 2 7.8 -8.8 0 0 0 0 1 4
1831 2 8 -8.8 0 0 0 0 1 4
1782 2 8.2 -9 0 0 0 0 1 4
1783 2 8.4 -9 0 0 0 0 1 4
1832 2 8.2 -8.8 0 0 0 0 1 4
1833 2 8.4 -8.8 0 0 0 0 1 4
1784 2 8.6 -9 0 0 0 0 1 4
1785 2 8.8 -9 0 0 0 0 1 4
1834 2 8.6 -8.8 0 0 0 0 1 4
1835 2 8.8 -8.8 0 0 0 0 1 4
1786 2 9 -9 0 0 0 0 1 4
1787 2 9.2 -9 0 0 0 0 1 4
1836 2 9 -8.8 0 0 0 0 1 4
1837 2 9.2 -8.8 0 0 0 0 1 4
1788 2 9.4 -9 0 0 0 0 1 4
1789 2 9.6 -9 0 0 0 0 1 4
1838 2 9.4 -8.8 0 0 0 0 1 4
1839 2 9.6 -8.8 0 0 0 0 1 4
1790 2 9.8 -9 0 0 0 0 1 4
1840 2 9.8 -8.8 0 0 0 0 1 4
1791 2 10 -9 0 0 0 0 1 4
1841 2 10 -8.8 0 0 0 0 1 4
1792 2 10.2 -9 0 0 0 0 1 4
1842 2 10.2 -8.8 0 0 0 0 1 4
1793 2 10.4 -9 0 0 0 0 1 4
1843 2 10.4 -8.8 0 0 0 0 1 4
1794 2 10.6 -9 0 0 0 0 1 4
1844 2 10.6 -8.8 0 0 0 0 1 4
1795 2 10.8 -9 0 0 0 0 1 4
1845 2 10.8 -8.8 0 0 0 0 1 4
1851 2 2 -8.6 0 0 0 0 1 4
1901 2 2 -8.4 0 0 0 0 1 4
1852 2 2.2 -8.6 0 0 0 0 1 4
1853 2 2.4 -8.6 0 0 0 0 1 4
1902 2 2.2 -8.4 0 0 0 0 1 4
1903 2 2.4 -8.4 0 0 0 0 1 4
1854 2 2.6 -8.6 0 0 0 0 1 4
1855 2 2.8 -8.6 0 0 0 0 1 4
1904 2 2.6 -8.4 0 0 0 0 1 4
1905 2 2.8 -8.4 0 0 0 0 1 4
1856 2 3 -8.6 0 0 0 0 1 4
1857 2 3.2 -8.6 0 0 0 0 1 4
1906 2 3 -8.4 0 0 0 0 1 4
1907 2 3.2 -8.4 0 0 0 0 1 4
1858 2 3.4 -8.6 0 0 0 0 1 4
1859 2 3.6 -8.6 0 0 0 0 1 4
1908 2 3.4 -8.4 0 0 0 0 1 4
1909 2 3.6 -8.4 0 0 0 0 1 4
1860 2 3.8 -8.6 0 0 0 0 1 4
1910 2 3.8 -8.4 0 0 0 0 1 4
1861 2 4 -8.6 0 0 0 0 1 4
1911 2 4 -8.4 0 0 0 0 1 4
1862 2 4.2 -8.6 0 0 0 0 1 4
1912 2 4.2 -8.4 0 0 0 0 1 4
1863 2 4.4 -8.6 0 0 0 0 1 4
1864 2 4.6 -8.6 0 0 0 0 1 4
1913 2 4.4 -8.4 0 0 0 0 1 4
1914 2 4.6 -8.4 0 0 0 0 1 4
1865 2 4.8 -8.6 0 0 0 0 1 4
1866 2 5 -8.6 0 0 0 0 1 4
1915 2 4.8 -8.4 0 0 0 0 1 4
1916 2 5 -8.4 0 0 0 0 1 4
1867 2 5.2 -8.6 0 0 0 0 1 4
1868 2 5.4 -8.6 0 0 0 0 1 4
1917 2 5.2 -8.4 0 0 0 0 1 4
1918 2 5.4 -8.4 0 0 0 0 1 4
1869 2 5.6 -8.6 0 0 0 0 1 4
1870 2 5.8 -8.6 0 0 0 0 1 4
1919 2 5.6 -8.4 0 0 0 0 1 4
1920 2 5.8 -8.4 0 0 0 0 1 4
1871 2 6 -8.6 0 0 0 0 1 4
1872 2 6.2 -8.6 0 0 0 0 1 4
1921 2 6 -8.4 0 0 0 0 1 4
1922 2 6.2 -8.4 0 0 0 0 1 4
1873 2 6.4 -8.6 0 0 0 0 1 4
1874 2 6.6 -8.6 0 0 0 0 1 4
1923 2 6.4 -8.4 0 0 0 0 1 4
1924 2 6.6 -8.4 0 0 0 0 1 4
1875 2 6.8 -8.6 0 0 0 0 1 4
1876 2 7 -8.6 0 0 0 0 1 4
1925 2 6.8 -8.4 0 0 0 0 1 4
1926 2 7 -8.4 0 0 0 0 1 4
1877 2 7.2 -8.6 0 0 0 0 1 4
1927 2 7.2 -8.4 0 0 0 0 1 4
1878 2 7.4 -8.6 0 0 0 0 1 4
1879 2 7.6 -8.6 0 0 0 0 1 4
1928 2 7.4 -8.4 0 0 0 0 1 4
1929 2 7.6 -8.4 0 0 0 0 1 4
1880 2 7.8 -8.6 0 0 0 0 1 4
1881 2 8 -8.6 0 0 0 0 1 4
1930 2 7.8 -8.4 0 0 0 0 1 4
1931 2 8 -8.4 0 0 0 0 1 4
1882 2 8.2 -8.6 0 0 0 0 1 4
1883 2 8.4 -8.6 0 0 0 0 1 4
1932 2 8.2 -8.4 0 0 0 0 1 4
1933 2 8.4 -8.4 0 0 0 0 1 4
1884 2 8.6 -8.6 0 0 0 0 1 4
1885 2 8.8 -8.6 0 0 0 0 1 4
1934 2 8.6 -8.4 0 0 0 0 1 4
1935 2 8.8 -8.4 0 0 0 0 1 4
1886 2 9 -8.6 0 0 0 0 1 4
1887 2 9.2 -8.6 0 0 0 0 1 4
1936 2 9 -8.4 0 0 0 0 1 4
1937 2 9.2 -8.4 0 0 0 0 1 4
1888 2 9.4 -8.6 0 0 0 0 1 4
1889 2 9.6 -8.6 0 0 0 0 1 4
1938 2 9.4 -8.4 0 0 0 0 1 4
1939 2 9.6 -8.4 0 0 0 0 1 4
1890 2 9.8 -8.6 0 0 0 0 1 4
1940 2 9.8 -8.4 0 0 0 0 1 4
1891 2 10 -8.6 0 0 0 0 1 4
1941 2 10 -8.4 0 0 0 0 1 4
1892 2 10.2 -8.6 0 0 0 0 1 4
1942 2 10.2 -8.4 0 0 0 0 1 4
1893 2 10.4 -8.6 0 0 0 0 1 4
1943 2 10.4 -8.4 0 0 0 0 1 4
1894 2 10.6 -8.6 0 0 0 0 1 4
1944 2 10.6 -8.4 0 0 0 0 1 4
1895 2 10.8 -8.6 0 0 0 0 1 4
1945 2 10.8 -8.4 0 0 0 0 1 4
1951 2 2 -8.2 0 0 0 0 1 4
2001 2 2 -8 0 0 0 0 1 4
1952 2 2.2 -8.2 0 0 0 0 1 4
1953 2 2.4 -8.2 0 0 0 0 1 4
2002 2 2.2 -8 0 0 0 0 1 4
2003 2 2.4 -8 0 0 0 0 1 4
1954 2 2.6 -8.2 0 0 0 0 1 4
1955 2 2.8 -8.2 0 0 0 0 1 4
2004 2 2.6 -8 0 0 0 0 1 4
2005 2 2.8 -8 0 0 0 0 1 4
1956 2 3 -8.2 0 0 0 0 1 4
1957 2 3.2 -8.2 0 0 0 0 1 4
2006 2 3 -8 0 0 0 0 1 4
2007 2 3.2 -8 0 0 0 0 1 4
1958 2 3.4 -8.2 0 0 0 0 1 4
1959 2 3.6 -8.2 0 0 0 0 1 4
2008 2 3.4 -8 0 0 0 0 1 4
2009 2 3.6 -8 0 0 0 0 1 4
1960 2 3.8 -8.2 0 0 0 0 1 4
2010 2 3.8 -8 0 0 0 0 1 4
1961 2 4 -8.2 0 0 0 0 1 4
2011 2 4 -8 0 0 0 0 1 4
1962 2 4.2 -8.2 0 0 0 0 1 4
2012 2 4.2 -8 0 0 0 0 1 4
1963 2 4.4 -8.2 0 0 0 0 1 4
1964 2 4.6 -8.2 0 0 0 0 1 4
2013 2 4.4 -8 0 0 0 0 1 4
2014 2 4.6 -8 0 0 0 0 1 4
1965 2 4.8 -8.2 0 0 0 0 1 4
1966 2 5 -8.2 0 0 0 0 1 4
2015 2 4.8 -8 0 0 0 0 1 4
2016 2 5 -8 0 0 0 0 1 4
1967 2 5.2 -8.2 0 0 0 0 1 4
1968 2 5.4 -8.2 0 0 0 0 1 4
2017 2 5.2 -8 0 0 0 0 1 4
2018 2 5.4 -8 0 0 0 0 1 4
1969 2 5.6 -8.2 0 0 0 0 1 4
1970 2 5.8 -8.2 0 0 0 0 1 4
2019 2 5.6 -8 0 0 0 0 1 4
2020 2 5.8 -8 0 0 0 0 1 4
1971 2 6 -8.2 0 0 0 0 1 4
1972 2 6.2 -8.2 0 0 0 0 1 4
2021 2 6 -8 0 0 0 0 1 4
2022 2 6.2 -8 0 0 0 0 1 4
1973 2 6.4 -8.2 0 0 0 0 1 4
1974 2 6.6 -8.2 0 0 0 0 1 4
2023 2 6.4 -8 0 0 0 0 1 4
2024 2 6.6 -8 0 0 0 0 1 4
1975 2 6.8 -8.2 0 0 0 0 1 4
1976 2 7 -8.2 0 0 0 0 1 4
2025 2 6.8 -8 0 0 0 0 1 4
2026 2 7 -8 0 0 0 0 1 4
1977 2 7.2 -8.2 0 0 0 0 1 4
2027 2 7.2 -8 0 0 0 0 1 4
1978 2 7.4 -8.2 0 0 0 0 1 4
1979 2 7.6 -8.2 0 0 0 0 1 4
2028 2 7.4 -8 0 0 0 0 1 4
2029 2 7.6 -8 0 0 0 0 1 4
1980 2 7.8 -8.2 0 0 0 0 1 4
1981 2 8 -8.2 0 0 0 0 1 4
2030 2 7.8 -8 0 0 0 0 1 4
2031 2 8 -8 0 0 0 0 1 4
1982 2 8.2 -8.2 0 0 0 0 1 4
1983 2 8.4 -8.2 0 0 0 0 1 4
2032 2 8.2 -8 0 0 0 0 1 4
2033 2 8.4 -8 0 0 0 0 1 4
1984 2 8.6 -8.2 0 0 0 0 1 4
1985 2 8.8 -8.2 0 0 0 0 1 4
2034 2 8.6 -8 0 0 0 0 1 4
2035 2 8.8 -8 0 0 0 0 1 4
1986 2 9 -8.2 0 0 0 0 1 4
1987 2 9.2 -8.2 0 0 0 0 1 4
2036 2 9 -8 0 0 0 0 1 4
2037 2 9.2 -8 0 0 0 0 1 4
1988 2 9.4 -8.2 0 0 0 0 1 4
1989 2 9.6 -8.2 0 0 0 0 1 4
2038 2 9.4 -8 0 0 0 0 1 4
2039 2 9.6 -8 0 0 0 0 1 4
1990 2 9.8 -8.2 0 0 0 0 1 4
2040 2 9.8 -8 0 0 0 0 1 4
1991 2 10 -8.2 0 0 0 0 1 4
2041 2 10 -8 0 0 0 0 1 4
1992 2 10.2 -8.2 0 0 0 0 1 4
2042 2 10.2 -8 0 0 0 0 1 4
1993 2 10.4 -8.2 0 0 0 0 1 4
2043 2 10.4 -8 0 0 0 0 1 4
1994 2 10.6 -8.2 0 0 0 0 1 4
2044 2 10.6 -8 0 0 0 0 1 4
1995 2 10.8 -8.2 0 0 0 0 1 4
2045 2 10.8 -8 0 0 0 0 1 4
2051 2 2 -7.8 0 0 0 0 1 4
2101 2 2 -7.6 0 0 0 0 1 4
2151 2 2 -7.4 0 0 0 0 0.999386 4
2052 2 2.2 -7.8 0 0 0 0 1 4
2053 2 2.4 -7.8 0 0 0 0 1 4
2102 2 2.2 -7.6 0 0 0 0 1 4
2103 2 2.4 -7.6 0 0 0 0 1 4
2152 2 2.2 -7.4 0 0 0 0 0.999743 4
2153 2 2.4 -7.4 0 0 0 0 0.999987 4
2054 2 2.6 -7.8 0 0 0 0 1 4
2055 2 2.8 -7.8 0 0 0 0 1 4
2104 2 2.6 -7.6 0 0 0 0 1 4
2105 2 2.8 -7.6 0 0 0 0 1 4
2154 2 2.6 -7.4 0 0 0 0 1.00001 4
2155 2 2.8 -7.4 0 0 0 0 0.999998 4
2056 2 3 -7.8 0 0 0 0 1 4
2057 2 3.2 -7.8 0 0 0 0 1 4
2106 2 3 -7.6 0 0 0 0 1 4
2107 2 3.2 -7.6 0 0 0 0 1 4
2156 2 3 -7.4 0 0 0 0 0.999995 4
2157 2 3.2 -7.4 0 0 0 0 1 4
2058 2 3.4 -7.8 0 0 0 0 1 4
2059 2 3.6 -7.8 0 0 0 0 1 4
2108 2 3.4 -7.6 0 0 0 0 1 4
2109 2 3.6 -7.6 0 0 0 0 1 4
2158 2 3.4 -7.4 0 0 0 0 0.999993 4
2159 2 3.6 -7.4 0 0 0 0 1.00002 4
2060 2 3.8 -7.8 0 0 0 0 1 4
2110 2 3.8 -7.6 0 0 0 0 1 4
2160 2 3.8 -7.4 0 0 0 0 1.00002 4
2061 2 4 -7.8 0 0 0 0 1 4
2111 2 4 -7.6 0 0 0 0 1 4
2161 2 4 -7.4 0 0 0 0 1.00019 4
2062 2 4.2 -7.8 0 0 0 0 1 4
2112 2 4.2 -7.6 0 0 0 0 1 4
2162 2 4.2 -7.4 0 0 0 0 1.01313 4
2063 2 4.4 -7.8 0 0 0 0 1 4
2064 2 4.6 -7.8 0 0 0 0 1 4
2113 2 4.4 -7.6 0 0 0 0 1 4
2114 2 4.6 -7.6 0 0 0 0 1 4
2163 2 4.4 -7.4 0 0 0 0 1.00534 4
2164 2 4.6 -7.4 0 0 0 0 1.00396 4
2065 2 4.8 -7.8 0 0 0 0 1 4
2066 2 5 -7.8 0 0 0 0 1 4
2115 2 4.8 -7.6 0 0 0 0 1 4
2116 2 5 -7.6 0 0 0 0 1 4
2165 2 4.8 -7.4 0 0 0 0 1.0028 4
2166 2 5 -7.4 0 0 0 0 1.00234 4
2067 2 5.2 -7.8 0 0 0 0 1 4
2068 2 5.4 -7.8 0 0 0 0 1 4
2117 2 5.2 -7.6 0 0 0 0 1 4
2118 2 5.4 -7.6 0 0 0 0 1 4
2167 2 5.2 -7.4 0 0 0 0 1.00219 4
2168 2 5.4 -7.4 0 0 0 0 1.00216 4
2069 2 5.6 -7.8 0 0 0 0 1 4
2070 2 5.8 -7.8 0 0 0 0 1 4
2119 2 5.6 -7.6 0 0 0 0 1 4
2120 2 5.8 -7.6 0 0 0 0 1 4
2169 2 5.6 -7.4 0 0 0 0 1.00213 4
2170 2 5.8 -7.4 0 0 0 0 1.00205 4
2071 2 6 -7.8 0 0 0 0 1 4
2072 2 6.2 -7.8 0 0 0 0 1 4
2121 2 6 -7.6 0 0 0 0 1 4
2122 2 6.2 -7.6 0 0 0 0 1 4
2171 2 6 -7.4 0 0 0 0 1.00188 4
2172 2 6.2 -7.4 0 0 0 0 1.00183 4
2073 2 6.4 -7.8 0 0 0 0 1 4
2074 2 6.6 -7.8 0 0 0 0 1 4
2123 2 6.4 -7.6 0 0 0 0 1 4
2124 2 6.6 -7.6 0 0 0 0 1 4
2173 2 6.4 -7.4 0 0 0 0 1.00183 4
2174 2 6.6 -7.4 0 0 0 0 1.00168 4
2075 2 6.8 -7.8 0 0 0 0 1 4
2076 2 7 -7.8 0 0 0 0 1 4
2125 2 6.8 -7.6 0 0 0 0 1 4
2126 2 7 -7.6 0 0 0 0 1 4
2175 2 6.8 -7.4 0 0 0 0 1.00175 4
2176 2 7 -7.4 0 0 0 0 1.00165 4
2077 2 7.2 -7.8 0 0 0 0 1 4
2127 2 7.2 -7.6 0 0 0 0 1 4
2177 2 7.2 -7.4 0 0 0 0 1.00165 4
2078 2 7.4 -7.8 0 0 0 0 1 4
2079 2 7.6 -7.8 0 0 0 0 1 4
2128 2 7.4 -7.6 0 0 0 0 1 4
2129 2 7.6 -7.6 0 0 0 0 1 4
2178 2 7.4 -7.4 0 0 0 0 1.00154 4
2179 2 7.6 -7.4 0 0 0 0 1.00155 4
2080 2 7.8 -7.8 0 0 0 0 1 4
2081 2 8 -7.8 0 0 0 0 1 4
2130 2 7.8 -7.6 0 0 0 0 1 4
2131 2 8 -7.6 0 0 0 0 1 4
2180 2 7.8 -7.4 0 0 0 0 1.00154 4
2181 2 8 -7.4 0 0 0 0 1.00148 4
2082 2 8.2 -7.8 0 0 0 0 1 4
2083 2 8.4 -7.8 0 0 0 0 1 4
2132 2 8.2 -7.6 0 0 0 0 1 4
2133 2 8.4 -7.6 0 0 0 0 1 4
2182 2 8.2 -7.4 0 0 0 0 1.00156 4
2183 2 8.4 -7.4 0 0 0 0 1.00156 4
2084 2 8.6 -7.8 0 0 0 0 1 4
2085 2 8.8 -7.8 0 0 0 0 1 4
2134 2 8.6 -7.6 0 0 0 0 1 4
2135 2 8.8 -7.6 0 0 0 0 1 4
2184 2 8.6 -7.4 0 0 0 0 1.00151 4
2185 2 8.8 -7.4 0 0 0 0 1.00137 4
2086 2 9 -7.8 0 0 0 0 1 4
2087 2 9.2 -7.8 0 0 0 0 1 4
2136 2 9 -7.6 0 0 0 0 1 4
2137 2 9.2 -7.6 0 0 0 0 1 4
2186 2 9 -7.4 0 0 0 0 1.00138 4
2187 2 9.2 -7.4 0 0 0 0 1.00131 4
2088 2 9.4 -7.8 0 0 0 0 1 4
2089 2 9.6 -7.8 0 0 0 0 1 4
2138 2 9.4 -7.6 0 0 0 0 1 4
2139 2 9.6 -7.6 0 0 0 0 1 4
2188 2 9.4 -7.4 0 0 0 0 1.00137 4
2189 2 9.6 -7.4 0 0 0 0 1.00126 4
2090 2 9.8 -7.8 0 0 0 0 1 4
2140 2 9.8 -7.6 0 0 0 0 1 4
2190 2 9.8 -7.4 0 0 0 0 1.0012 4
2091 2 10 -7.8 0 0 0 0 1 4
2141 2 10 -7.6 0 0 0 0 1 4
2191 2 10 -7.4 0 0 0 0 1.00124 4
2092 2 10.2 -7.8 0 0 0 0 1 4
2142 2 10.2 -7.6 0 0 0 0 1 4
2192 2 10.2 -7.4 0 0 0 0 1.00129 4
2093 2 10.4 -7.8 0 0 0 0 1 4
2143 2 10.4 -7.6 0 0 0 0 1 4
2193 2 10.4 -7.4 0 0 0 0 1.00129 4
2094 2 10.6 -7.8 0 0 0 0 1 4
2144 2 10.6 -7.6 0 0 0 0 1 4
2194 2 10.6 -7.4 0 0 0 0 1.0012 4
2095 2 10.8 -7.8 0 0 0 0 1 4
2145 2 10.8 -7.6 0 0 0 0 1 4
2195 2 10.8 -7.4 0 0 0 0 1.00116 4
2201 2 2 -7.2 0 0 0 0 0.999495 4
2251 2 2 -7 0 0 0 0 0.999593 4
2202 2 2.2 -7.2 0 0 0 0 0.999788 4
2203 2 2.4 -7.2 0 0 0 0 0.999984 4
2252 2 2.2 -7 0 0 0 0 0.999826 4
2253 2 2.4 -7 0 0 0 0 0.999977 4
2204 2 2.6 -7.2 0 0 0 0 1 4
2205 2 2.8 -7.2 0 0 0 0 0.999999 4
2254 2 2.6 -7 0 0 0 0 0.999999 4
2255 2 2.8 -7 0 0 0 0 0.999999 4
2206 2 3 -7.2 0 0 0 0 0.999998 4
2207 2 3.2 -7.2 0 0 0 0 1 4
2256 2 3 -7 0 0 0 0 0.999999 4
2257 2 3.2 -7 0 0 0 0 1 4
2208 2 3.4 -7.2 0 0 0 0 1 4
2209 2 3.6 -7.2 0 0 0 0 1.00001 4
2258 2 3.4 -7 0 0 0 0 1 4
2259 2 3.6 -7 0 0 0 0 1.00003 4
2210 2 3.8 -7.2 0 0 0 0 1.00032 4
2260 2 3.8 -7 0 0 0 0 1.00094 4
2211 2 4 -7.2 0 0 0 0 1.00437 4
2261 2 4 -7 0 0 0 0 1.00522 4
2212 2 4.2 -7.2 0 0 0 0 1.00979 4
2262 2 4.2 -7 0 0 0 0 1.00918 4
2213 2 4.4 -7.2 0 0 0 0 1.00761 4
2214 2 4.6 -7.2 0 0 0 0 1.00429 4
2263 2 4.4 -7 0 0 0 0 1.00783 4
2264 2 4.6 -7 0 0 0 0 1.00481 4
2215 2 4.8 -7.2 0 0 0 0 1.0031 4
2216 2 5 -7.2 0 0 0 0 1.00263 4
2265 2 4.8 -7 0 0 0 0 1.00346 4
2266 2 5 -7 0 0 0 0 1.00296 4
2217 2 5.2 -7.2 0 0 0 0 1.00248 4
2218 2 5.4 -7.2 0 0 0 0 1.00233 4
2267 2 5.2 -7 0 0 0 0 1.00276 4
2268 2 5.4 -7 0 0 0 0 1.00257 4
2219 2 5.6 -7.2 0 0 0 0 1.00232 4
2220 2 5.8 -7.2 0 0 0 0 1.00221 4
2269 2 5.6 -7 0 0 0 0 1.00248 4
2270 2 5.8 -7 0 0 0 0 1.00235 4
2221 2 6 -7.2 0 0 0 0 1.00204 4
2222 2 6.2 -7.2 0 0 0 0 1.00197 4
2271 2 6 -7 0 0 0 0 1.0022 4
2272 2 6.2 -7 0 0 0 0 1.0021 4
2223 2 6.4 -7.2 0 0 0 0 1.00191 4
2224 2 6.6 -7.2 0 0 0 0 1.0018 4
2273 2 6.4 -7 0 0 0 0 1.00202 4
2274 2 6.6 -7 0 0 0 0 1.00192 4
2225 2 6.8 -7.2 0 0 0 0 1.00181 4
2226 2 7 -7.2 0 0 0 0 1.00175 4
2275 2 6.8 -7 0 0 0 0 1.00188 4
2276 2 7 -7 0 0 0 0 1.00182 4
2227 2 7.2 -7.2 0 0 0 0 1.00172 4
2277 2 7.2 -7 0 0 0 0 1.00179 4
2228 2 7.4 -7.2 0 0 0 0 1.00164 4
2229 2 7.6 -7.2 0 0 0 0 1.00161 4
2278 2 7.4 -7 0 0 0 0 1.00172 4
2279 2 7.6 -7 0 0 0 0 1.00169 4
2230 2 7.8 -7.2 0 0 0 0 1.0016 4
2231 2 8 -7.2 0 0 0 0 1.00156 4
2280 2 7.8 -7 0 0 0 0 1.00167 4
2281 2 8 -7 0 0 0 0 1.00162 4
2232 2 8.2 -7.2 0 0 0 0 1.0016 4
2233 2 8.4 -7.2 0 0 0 0 1.00159 4
2282 2 8.2 -7 0 0 0 0 1.00163 4
2283 2 8.4 -7 0 0 0 0 1.00162 4
2234 2 8.6 -7.2 0 0 0 0 1.00155 4
2235 2 8.8 -7.2 0 0 0 0 1.00148 4
2284 2 8.6 -7 0 0 0 0 1.00158 4
2285 2 8.8 -7 0 0 0 0 1.00153 4
2236 2 9 -7.2 0 0 0 0 1.00142 4
2237 2 9.2 -7.2 0 0 0 0 1.00137 4
2286 2 9 -7 0 0 0 0 1.00147 4
2287 2 9.2 -7 0 0 0 0 1.00143 4
2238 2 9.4 -7.2 0 0 0 0 1.0014 4
2239 2 9.6 -7.2 0 0 0 0 1.00135 4
2288 2 9.4 -7 0 0 0 0 1.00142 4
2289 2 9.6 -7 0 0 0 0 1.00139 4
2240 2 9.8 -7.2 0 0 0 0 1.0013 4
2290 2 9.8 -7 0 0 0 0 1.00134 4
2241 2 10 -7.2 0 0 0 0 1.00129 4
2291 2 10 -7 0 0 0 0 1.00133 4
2242 2 10.2 -7.2 0 0 0 0 1.00132 4
2292 2 10.2 -7 0 0 0 0 1.00134 4
2243 2 10.4 -7.2 0 0 0 0 1.00129 4
2293 2 10.4 -7 0 0 0 0 1.00131 4
2244 2 10.6 -7.2 0 0 0 0 1.00122 4
2294 2 10.6 -7 0 0 0 0 1.00125 4
2245 2 10.8 -7.2 0 0 0 0 1.0012 4
2295 2 10.8 -7 0 0 0 0 1.00123 4
16387 1 2.00734 -6.76311 0.02 0 0 0 0.999693 1
16388 1 2.00442 -6.56957 0.02 0 0 0 1.00006 1
16389 1 2.20688 -6.73741 0.02 0 0 0 0.999992 1
16390 1 2.39966 -6.74525 0.02 0 0 0 0.999993 1
16392 1 2.18981 -6.548 0.02 0 0 0 1.00001 1
16393 1 2.38352 -6.55339 0.02 0 0 0 1 1
16391 1 2.59305 -6.74496 0.02 0 0 0 1 1
16394 1 2.5919 -6.56753 0.02 0 0 0 1 1
16395 1 2.80096 -6.75843 0.02 0 0 0 0.999999 1
16396 1 2.81144 -6.57879 0.02 0 0 0 1 1
16397 1 3.02352 -6.59334 0.02 0 0 0 0.999997 1
16398 1 3.03546 -6.77278 0.02 0 0 0 0.999997 1
16399 1 3.2439 -6.74284 0.02 0 0 0 1.00001 1
16401 1 3.23406 -6.5619 0.02 0 0 0 0.999998 1
16400 1 3.44185 -6.74114 0.02 0 0 0 0.999995 1
16402 1 3.43405 -6.55597 0.02 0 0 0 0.999999 1
16403 1 3.6347 -6.7467 0.02 0 0 0 1.00001 1
16405 1 3.62347 -6.54197 0.02 0 0 0 1 1
16040 1 3.99965 -6.54057 0.02 0 0 0 1.00009 1
16404 1 3.81499 -6.7167 0.02 0 0 0 1.00003 1
16406 1 3.81198 -6.52686 0.02 0 0 0 1.00003 1
16407 1 3.99648 -6.74068 0.02 0 0 0 1.00009 1
16039 1 4.11222 -6.69832 0.0142737 0.00247491 -6.9364e-05 7.52799e-05 1.0099 0
16042 1 4.24642 -6.72556 0.0109836 0.00160721 -2.55454e-05 2.31109e-05 1.01152 0
16043 1 4.3953 -6.70657 0.0102296 0.0014592 -1.52023e-06 5.46329e-06 1.00806 0
16047 1 4.53447 -6.60261 0.0127362 0.00231008 1.31228e-06 8.94592e-07 1.00552 0
16049 1 4.59654 -6.7626 0.00702696 0.000798075 3.19112e-06 7.00518e-07 1.00493 0
16048 1 4.69446 -6.53284 0.0131444 0.00242516 2.66252e-06 3.6369e-08 1.00459 0
16052 1 4.84898 -6.55876 0.0112199 0.00168943 3.28924e-06 -3.29738e-08 1.00398 0
16056 1 4.79061 -6.75172 0.00602716 0.000557599 3.07113e-06 -8.8925e-08 1.00408 0
15703 1 4.976 -6.69062 0.00673348 0.000649801 2.84199e-06 -3.87763e-08 1.00339 0
15704 1 5.23011 -6.57591 0.00841767 0.000929219 1.468e-06 9.30548e-08 1.00316 0
15712 1 5.12874 -6.7504 0.00454612 0.000241083 1.28706e-06 -4.35133e-08 1.00344 0
15718 1 5.32609 -6.73179 0.00432684 0.000213675 4.50783e-07 8.06867e-08 1.00296 0
15715 1 5.54676 -6.61269 0.00634099 0.000514208 1.37974e-08 4.31169e-07 1.00264 0
15383 1 5.54028 -6.78168 0.00309675 9.21441e-05 -3.8758e-09 7.8505e-08 1.00277 0
15377 1 5.73015 -6.56248 0.00682908 0.000552188 -5.16795e-07 4.58019e-07 1.00256 0
15388 1 5.90802 -6.56826 0.00624445 0.000476963 -7.9837e-07 5.6288e-07 1.00243 0
14998 1 5.77761 -6.7436 0.00332007 0.000116204 -4.61459e-07 3.43077e-07 1.0026 0
15010 1 5.98157 -6.73433 0.00316227 9.26375e-05 -7.10579e-07 4.1745e-07 1.0024 0
15002 1 6.2125 -6.56269 0.00568291 0.00035611 -1.10364e-06 6.71626e-07 1.00224 0
14659 1 6.17395 -6.74372 0.00281677 5.14794e-05 -7.44678e-07 3.53333e-07 1.00232 0
15391 1 6.38774 -6.55 0.00556956 0.000317302 -1.13332e-06 6.3214e-07 1.00215 0
14671 1 6.36663 -6.73659 0.00272466 5.1636e-05 -6.62966e-07 3.36428e-07 1.00221 0
14328 1 6.54952 -6.70334 0.0030527 6.312e-05 -7.2939e-07 3.21203e-07 1.00205 0
13991 1 6.71358 -6.74622 0.00234226 2.06706e-05 -5.17319e-07 2.42965e-07 1.00205 0
13996 1 6.88173 -6.67489 0.00318537 7.58343e-05 -5.90659e-07 2.23047e-07 1.00192 0
13638 1 7.0277 -6.73514 0.0022937 1.54118e-05 -3.81348e-07 1.31333e-07 1.00194 0
13276 1 7.19591 -6.72095 0.00237164 1.70019e-05 -2.94526e-07 6.87123e-08 1.0019 0
14660 1 7.21966 -6.5359 0.00467307 0.000180689 -5.23824e-07 1.88686e-07 1.00185 0
12923 1 7.36263 -6.69078 0.00267147 1.81853e-05 -2.87466e-07 4.90353e-08 1.00182 0
12927 1 7.51737 -6.71505 0.00230021 1.48818e-06 -1.90927e-07 1.58196e-08 1.00182 0
12585 1 7.68057 -6.71276 0.00224208 5.53709e-08 -1.70965e-07 -7.97147e-09 1.00181 0
12592 1 7.85057 -6.72488 0.00203432 3.88892e-06 -8.21551e-08 -2.97646e-08 1.00175 0
12248 1 8.02962 -6.67596 0.00250263 2.56693e-05 -1.37767e-07 -2.67775e-08 1.00163 0
14002 1 7.8899 -6.52945 0.0041981 0.000125608 -2.00066e-07 -2.04291e-08 1.00169 0
11538 1 8.17146 -6.76338 0.00160028 -1.49764e-06 -7.52563e-08 -1.78376e-08 1.00169 0
11919 1 8.3779 -6.57976 0.00337554 7.43554e-05 -1.09764e-07 -7.01213e-08 1.00162 0
11195 1 8.40235 -6.73476 0.00177819 9.75034e-06 -5.97589e-09 -2.98459e-08 1.00166 0
13634 1 8.22856 -6.52254 0.00407436 0.000111362 -1.21168e-07 -6.83078e-08 1.00165 0
10864 1 8.58454 -6.74146 0.00166453 -1.54263e-06 -4.86693e-08 -1.98619e-08 1.00163 0
12934 1 8.765 -6.55577 0.00346392 6.09318e-05 4.09787e-08 -7.30865e-08 1.00156 0
10527 1 8.78623 -6.71445 0.00186673 -6.92895e-07 5.00772e-08 -2.07497e-08 1.00156 0
13649 1 8.58893 -6.52735 0.00382702 8.41987e-05 -1.80746e-08 -9.11028e-08 1.00159 0
10538 1 8.95451 -6.74097 0.00159451 -2.80256e-05 5.86208e-09 -1.51933e-09 1.00157 0
12936 1 9.08177 -6.57499 0.00316349 4.2128e-05 2.56354e-07 -6.21819e-08 1.00146 0
12254 1 9.27764 -6.55399 0.00330868 3.31322e-05 4.2195e-07 -7.36906e-08 1.00145 0
10178 1 9.15565 -6.7287 0.0016653 -2.96998e-05 1.20602e-07 6.01129e-09 1.0015 0
3116 1 9.34427 -6.75033 0.00147035 -2.37405e-05 1.7212e-07 1.68544e-08 1.00148 0
11924 1 9.46459 -6.53568 0.0034337 2.52915e-05 6.18837e-07 -9.33577e-08 1.00142 0
10185 1 9.53543 -6.6971 0.00192158 -1.68627e-05 4.1205e-07 2.05949e-09 1.00145 0
3119 1 9.70241 -6.7295 0.001599 -2.5129e-05 4.70068e-07 -6.09334e-09 1.00143 0
3123 1 9.87916 -6.66941 0.00211176 -3.23044e-06 7.6275e-07 -4.36003e-08 1.00133 0
3124 1 10.0147 -6.7648 0.00131533 -2.52003e-05 6.14966e-07 -3.93867e-08 1.00138 0
11916 1 10.1827 -6.59402 0.0027376 2.80216e-05 1.25316e-06 -1.55974e-07 1.00132 0
3125 1 10.2498 -6.74638 0.00141241 -7.90356e-06 8.24634e-07 -8.58988e-08 1.00136 0
3109 1 10.4204 -6.55261 0.00306907 2.80838e-05 1.52755e-06 -2.40132e-07 1.00129 0
3126 1 10.4531 -6.72532 0.00155365 -1.18286e-05 9.98574e-07 -1.41806e-07 1.00132 0
3113 1 10.641 -6.55295 0.00302905 2.64005e-05 1.59833e-06 -2.90137e-07 1.00126 0
3127 1 10.6484 -6.72478 0.00152495 -1.27573e-05 1.05461e-06 -1.80997e-07 1.00128 0
3117 1 10.9481 -6.56916 0.00283475 1.67224e-05 1.477e-06 -3.08123e-07 1.00119 0
3128 1 10.83 -6.74845 0.00132968 -2.45766e-05 9.4896e-07 -2.00036e-07 1.00128 0
16408 1 2.1517 -6.17242 0.02 0 0 0 1 1
16409 1 2.19732 -6.36064 0.02 0 0 0 1 1
16411 1 2.35791 -6.18432 0.02 0 0 0 1 1
16410 1 2.40949 -6.36725 0.02 0 0 0 1 1
16412 1 2.57958 -6.20217 0.02 0 0 0 1 1
16413 1 2.60962 -6.38875 0.02 0 0 0 1 1
16414 1 2.802 -6.39164 0.02 0 0 0 1 1
16416 1 2.79266 -6.19888 0.02 0 0 0 1 1
16415 1 2.99674 -6.4155 0.02 0 0 0 1 1
16417 1 2.99583 -6.22273 0.02 0 0 0 1 1
16418 1 3.19724 -6.38406 0.02 0 0 0 1 1
16420 1 3.19198 -6.19544 0.02 0 0 0 1 1
16419 1 3.40898 -6.36958 0.02 0 0 0 1 1
16421 1 3.3848 -6.17896 0.02 0 0 0 1 1
16422 1 3.60641 -6.3409 0.02 0 0 0 1 1
16424 1 3.57442 -6.1404 0.02 0 0 0 1 1
16425 1 3.76416 -6.12527 0.02 0 0 0 1.00001 1
16423 1 3.79654 -6.32761 0.02 0 0 0 1.00002 1
16041 1 4.15348 -6.50099 0.0168663 0.00349339 -8.36545e-05 8.12584e-06 1.00999 0
16426 1 3.98339 -6.3356 0.02 0 0 0 1.00006 1
16427 1 3.95899 -6.13484 0.02 0 0 0 1.00004 1
16060 1 4.141 -6.31158 0.0175997 0.00311562 -3.53386e-06 1.81089e-05 1.0078 0
16061 1 4.12987 -6.1229 0.0180861 0.00274975 -7.01755e-07 1.17403e-07 1.00624 0
16044 1 4.317 -6.51502 0.0161389 0.0038877 -2.36461e-05 4.34807e-06 1.00917 0
16045 1 4.46967 -6.43553 0.016591 0.00392068 -1.18228e-06 1.01694e-06 1.00647 0
16062 1 4.31271 -6.30544 0.0177507 0.00457678 -3.51472e-06 1.47922e-06 1.00757 0
16064 1 4.31289 -6.10942 0.0184108 0.00466922 -7.19232e-07 -1.23936e-06 1.00614 0
16063 1 4.47938 -6.227 0.0182391 0.00488628 -7.82276e-07 -5.53592e-07 1.0056 0
16046 1 4.6299 -6.35908 0.0165579 0.00394808 1.11193e-06 3.8785e-08 1.00511 0
16066 1 4.64891 -6.14808 0.0181696 0.00491942 -1.84273e-07 3.56602e-08 1.0047 0
16053 1 5.0303 -6.5105 0.0110061 0.00160632 2.38463e-06 2.91018e-07 1.00377 0
16050 1 4.78839 -6.28618 0.0163631 0.00382795 1.19633e-06 2.42411e-07 1.0046 0
16068 1 4.8267 -6.09492 0.0177703 0.00467548 2.56204e-08 4.28776e-07 1.00435 0
16051 1 4.93017 -6.35886 0.0144123 0.00281178 1.72924e-06 2.74135e-07 1.00423 0
16054 1 5.06594 -6.24491 0.0150888 0.00309743 8.55018e-07 3.85718e-07 1.00396 0
15708 1 5.40812 -6.52108 0.00878913 0.000929922 5.18549e-07 2.80076e-07 1.00297 0
16057 1 5.18522 -6.40259 0.0120996 0.00187143 1.13256e-06 2.24791e-07 1.00364 0
16055 1 5.24174 -6.20304 0.0146232 0.0028238 3.02862e-07 4.10177e-07 1.0036 0
16058 1 5.40066 -6.12024 0.0147726 0.0028493 -1.7937e-07 4.24599e-07 1.00333 0
16059 1 5.37853 -6.34058 0.0120435 0.00180331 3.11479e-07 3.59553e-07 1.00332 0
15705 1 5.55291 -6.25032 0.0124861 0.00191692 -3.01077e-07 5.71177e-07 1.0031 0
15709 1 5.60657 -6.42634 0.00964403 0.00110245 -2.22847e-07 5.25423e-07 1.00288 0
15706 1 5.75696 -6.10746 0.0133583 0.00218393 -8.31553e-07 6.21374e-07 1.0029 0
15707 1 5.74665 -6.28473 0.0111955 0.0014832 -7.1126e-07 6.84691e-07 1.00286 0
15713 1 5.88344 -6.37979 0.00934073 0.000997924 -9.68858e-07 7.12912e-07 1.00266 0
15710 1 5.95287 -6.13604 0.0122854 0.00176865 -1.1938e-06 7.42164e-07 1.00272 0
15717 1 6.04713 -6.28103 0.0101638 0.00115887 -1.30643e-06 7.9396e-07 1.00259 0
15714 1 6.21928 -6.12183 0.0115443 0.00147535 -1.58192e-06 7.8015e-07 1.00251 0
15376 1 6.21553 -6.3262 0.00907323 0.000879636 -1.46499e-06 8.21048e-07 1.00246 0
15379 1 6.0681 -6.48978 0.00716465 0.00056368 -1.17354e-06 7.30051e-07 1.00241 0
15006 1 6.56378 -6.51231 0.00582433 0.000324776 -1.13117e-06 6.02139e-07 1.00208 0
15719 1 6.39325 -6.17884 0.0103903 0.00112994 -1.67402e-06 7.69326e-07 1.00239 0