ITEM: TIMESTEP
63000
ITEM: NUMBER OF ATOMS
12470
ITEM: BOX BOUNDS ff ff pp
0.0000000000000000e+00 2.2000000000000000e+01
-1.0000000000000000e+01 1.0000000000000000e+01
-2.0000000000000000e-02 2.0000000000000000e-02
ITEM: ATOMS id type x y vx vy fx fy c_den c_phase
1501 2 2 -10 0 0 0 0 1 5
1535 2 2 -9.8 0 0 0 0 1 5
1569 2 2 -9.6 0 0 0 0 1 5
1502 2 2.2 -10 0 0 0 0 1 5
1503 2 2.4 -10 0 0 0 0 1 5
1536 2 2.2 -9.8 0 0 0 0 1 5
1537 2 2.4 -9.8 0 0 0 0 1 5
1570 2 2.2 -9.6 0 0 0 0 1 5
1571 2 2.4 -9.6 0 0 0 0 1 5
1504 2 2.6 -10 0 0 0 0 1 5
1505 2 2.8 -10 0 0 0 0 1 5
1538 2 2.6 -9.8 0 0 0 0 1 5
1539 2 2.8 -9.8 0 0 0 0 1 5
1572 2 2.6 -9.6 0 0 0 0 1 5
1573 2 2.8 -9.6 0 0 0 0 1 5
1506 2 3 -10 0 0 0 0 1 5
1540 2 3 -9.8 0 0 0 0 1 5
1574 2 3 -9.6 0 0 0 0 1 5
1507 2 3.2 -10 0 0 0 0 1 5
1541 2 3.2 -9.8 0 0 0 0 1 5
1575 2 3.2 -9.6 0 0 0 0 1 5
1508 2 3.4 -10 0 0 0 0 1 5
1542 2 3.4 -9.8 0 0 0 0 1 5
1576 2 3.4 -9.6 0 0 0 0 1 5
1509 2 3.6 -10 0 0 0 0 1 5
1543 2 3.6 -9.8 0 0 0 0 1 5
1577 2 3.6 -9.6 0 0 0 0 1 5
1510 2 3.8 -10 0 0 0 0 1 5
1544 2 3.8 -9.8 0 0 0 0 1 5
1578 2 3.8 -9.6 0 0 0 0 1 5
1511 2 4 -10 0 0 0 0 1 5
1512 2 4.2 -10 0 0 0 0 1 5
1545 2 4 -9.8 0 0 0 0 1 5
1546 2 4.2 -9.8 0 0 0 0 1 5
1579 2 4 -9.6 0 0 0 0 1 5
1580 2 4.2 -9.6 0 0 0 0 1 5
1513 2 4.4 -10 0 0 0 0 1 5
1514 2 4.6 -10 0 0 0 0 1 5
1547 2 4.4 -9.8 0 0 0 0 1 5
1548 2 4.6 -9.8 0 0 0 0 1 5
1581 2 4.4 -9.6 0 0 0 0 1 5
1582 2 4.6 -9.6 0 0 0 0 1 5
1515 2 4.8 -10 0 0 0 0 1 5
1516 2 5 -10 0 0 0 0 1 5
1549 2 4.8 -9.8 0 0 0 0 1 5
1550 2 5 -9.8 0 0 0 0 1 5
1583 2 4.8 -9.6 0 0 0 0 1 5
1584 2 5 -9.6 0 0 0 0 1 5
1517 2 5.2 -10 0 0 0 0 1 5
1518 2 5.4 -10 0 0 0 0 1 5
1551 2 5.2 -9.8 0 0 0 0 1 5
1552 2 5.4 -9.8 0 0 0 0 1 5
1585 2 5.2 -9.6 0 0 0 0 1 5
1586 2 5.4 -9.6 0 0 0 0 1 5
1519 2 5.6 -10 0 0 0 0 1 5
1553 2 5.6 -9.8 0 0 0 0 1 5
1587 2 5.6 -9.6 0 0 0 0 1 5
1520 2 5.8 -10 0 0 0 0 1 5
1554 2 5.8 -9.8 0 0 0 0 1 5
1588 2 5.8 -9.6 0 0 0 0 1 5
1521 2 6 -10 0 0 0 0 1 5
1555 2 6 -9.8 0 0 0 0 1 5
1589 2 6 -9.6 0 0 0 0 1 5
1522 2 6.2 -10 0 0 0 0 1 5
1523 2 6.4 -10 0 0 0 0 1 5
1556 2 6.2 -9.8 0 0 0 0 1 5
1557 2 6.4 -9.8 0 0 0 0 1 5
1590 2 6.2 -9.6 0 0 0 0 1 5
1591 2 6.4 -9.6 0 0 0 0 1 5
1524 2 6.6 -10 0 0 0 0 1 5
1525 2 6.8 -10 0 0 0 0 1 5
1558 2 6.6 -9.8 0 0 0 0 1 5
1559 2 6.8 -9.8 0 0 0 0 1 5
1592 2 6.6 -9.6 0 0 0 0 1 5
1593 2 6.8 -9.6 0 0 0 0 1 5
1526 2 7 -10 0 0 0 0 1 5
1527 2 7.2 -10 0 0 0 0 1 5
1560 2 7 -9.8 0 0 0 0 1 5
1561 2 7.2 -9.8 0 0 0 0 1 5
1594 2 7 -9.6 0 0 0 0 1 5
1595 2 7.2 -9.6 0 0 0 0 1 5
1603 2 2 -9.4 0 0 0 0 1 5
1637 2 2 -9.2 0 0 0 0 1 5
1604 2 2.2 -9.4 0 0 0 0 1 5
1605 2 2.4 -9.4 0 0 0 0 1 5
1638 2 2.2 -9.2 0 0 0 0 1 5
1639 2 2.4 -9.2 0 0 0 0 1 5
1606 2 2.6 -9.4 0 0 0 0 1 5
1607 2 2.8 -9.4 0 0 0 0 1 5
1640 2 2.6 -9.2 0 0 0 0 1 5
1641 2 2.8 -9.2 0 0 0 0 1 5
1608 2 3 -9.4 0 0 0 0 1 5
1642 2 3 -9.2 0 0 0 0 1 5
1609 2 3.2 -9.4 0 0 0 0 1 5
1643 2 3.2 -9.2 0 0 0 0 1 5
1610 2 3.4 -9.4 0 0 0 0 1 5
1644 2 3.4 -9.2 0 0 0 0 1 5
1611 2 3.6 -9.4 0 0 0 0 1 5
1645 2 3.6 -9.2 0 0 0 0 1 5
1612 2 3.8 -9.4 0 0 0 0 1 5
1646 2 3.8 -9.2 0 0 0 0 1 5
1613 2 4 -9.4 0 0 0 0 1 5
1614 2 4.2 -9.4 0 0 0 0 1 5
1647 2 4 -9.2 0 0 0 0 1 5
1648 2 4.2 -9.2 0 0 0 0 1 5
1615 2 4.4 -9.4 0 0 0 0 1 5
1616 2 4.6 -9.4 0 0 0 0 1 5
1649 2 4.4 -9.2 0 0 0 0 1 5
1650 2 4.6 -9.2 0 0 0 0 1 5
1617 2 4.8 -9.4 0 0 0 0 1 5
1618 2 5 -9.4 0 0 0 0 1 5
1651 2 4.8 -9.2 0 0 0 0 1 5
1652 2 5 -9.2 0 0 0 0 1 5
1619 2 5.2 -9.4 0 0 0 0 1 5
1620 2 5.4 -9.4 0 0 0 0 1 5
1653 2 5.2 -9.2 0 0 0 0 1 5
1654 2 5.4 -9.2 0 0 0 0 1 5
1621 2 5.6 -9.4 0 0 0 0 1 5
1655 2 5.6 -9.2 0 0 0 0 1 5
1622 2 5.8 -9.4 0 0 0 0 1 5
1656 2 5.8 -9.2 0 0 0 0 1 5
1623 2 6 -9.4 0 0 0 0 1 5
1657 2 6 -9.2 0 0 0 0 1 5
1624 2 6.2 -9.4 0 0 0 0 1 5
1625 2 6.4 -9.4 0 0 0 0 1 5
1658 2 6.2 -9.2 0 0 0 0 1 5
1659 2 6.4 -9.2 0 0 0 0 1 5
1626 2 6.6 -9.4 0 0 0 0 1 5
1627 2 6.8 -9.4 0 0 0 0 1 5
1660 2 6.6 -9.2 0 0 0 0 1 5
1661 2 6.8 -9.2 0 0 0 0 1 5
1628 2 7 -9.4 0 0 0 0 1 5
1629 2 7.2 -9.4 0 0 0 0 1 5
1662 2 7 -9.2 0 0 0 0 1 5
1663 2 7.2 -9.2 0 0 0 0 1 5
1671 2 2 -9 0 0 0 0 1 5
1705 2 2 -8.8 0 0 0 0 1 5
1672 2 2.2 -9 0 0 0 0 1 5
1673 2 2.4 -9 0 0 0 0 1 5
1706 2 2.2 -8.8 0 0 0 0 1 5
1707 2 2.4 -8.8 0 0 0 0 1 5
1674 2 2.6 -9 0 0 0 0 1 5
1675 2 2.8 -9 0 0 0 0 1 5
1708 2 2.6 -8.8 0 0 0 0 1 5
1709 2 2.8 -8.8 0 0 0 0 1 5
1676 2 3 -9 0 0 0 0 1 5
1710 2 3 -8.8 0 0 0 0 1 5
1677 2 3.2 -9 0 0 0 0 1 5
1711 2 3.2 -8.8 0 0 0 0 1 5
1678 2 3.4 -9 0 0 0 0 1 5
1712 2 3.4 -8.8 0 0 0 0 1 5
1679 2 3.6 -9 0 0 0 0 1 5
1713 2 3.6 -8.8 0 0 0 0 1 5
1680 2 3.8 -9 0 0 0 0 1 5
1714 2 3.8 -8.8 0 0 0 0 1 5
1681 2 4 -9 0 0 0 0 1 5
1682 2 4.2 -9 0 0 0 0 1 5
1715 2 4 -8.8 0 0 0 0 1 5
1716 2 4.2 -8.8 0 0 0 0 1 5
1683 2 4.4 -9 0 0 0 0 1 5
1684 2 4.6 -9 0 0 0 0 1 5
1717 2 4.4 -8.8 0 0 0 0 1 5
1718 2 4.6 -8.8 0 0 0 0 1 5
1685 2 4.8 -9 0 0 0 0 1 5
1686 2 5 -9 0 0 0 0 1 5
1719 2 4.8 -8.8 0 0 0 0 1 5
1720 2 5 -8.8 0 0 0 0 1 5
1687 2 5.2 -9 0 0 0 0 1 5
1688 2 5.4 -9 0 0 0 0 1 5
1721 2 5.2 -8.8 0 0 0 0 1 5
1722 2 5.4 -8.8 0 0 0 0 1 5
1689 2 5.6 -9 0 0 0 0 1 5
1723 2 5.6 -8.8 0 0 0 0 1 5
1690 2 5.8 -9 0 0 0 0 1 5
1724 2 5.8 -8.8 0 0 0 0 1 5
1691 2 6 -9 0 0 0 0 1 5
1725 2 6 -8.8 0 0 0 0 1 5
1692 2 6.2 -9 0 0 0 0 1 5
1693 2 6.4 -9 0 0 0 0 1 5
1726 2 6.2 -8.8 0 0 0 0 1 5
1727 2 6.4 -8.8 0 0 0 0 1 5
1694 2 6.6 -9 0 0 0 0 1 5
1695 2 6.8 -9 0 0 0 0 1 5
1728 2 6.6 -8.8 0 0 0 0 1 5
1729 2 6.8 -8.8 0 0 0 0 1 5
1696 2 7 -9 0 0 0 0 1 5
1697 2 7.2 -9 0 0 0 0 1 5
1730 2 7 -8.8 0 0 0 0 1 5
1731 2 7.2 -8.8 0 0 0 0 1 5
1739 2 2 -8.6 0 0 0 0 1 5
1773 2 2 -8.4 0 0 0 0 1 5
1740 2 2.2 -8.6 0 0 0 0 1 5
1741 2 2.4 -8.6 0 0 0 0 1 5
1774 2 2.2 -8.4 0 0 0 0 1 5
1775 2 2.4 -8.4 0 0 0 0 1 5
1742 2 2.6 -8.6 0 0 0 0 1 5
1743 2 2.8 -8.6 0 0 0 0 1 5
1776 2 2.6 -8.4 0 0 0 0 1 5
1777 2 2.8 -8.4 0 0 0 0 1 5
1744 2 3 -8.6 0 0 0 0 1 5
1778 2 3 -8.4 0 0 0 0 1 5
1745 2 3.2 -8.6 0 0 0 0 1 5
1779 2 3.2 -8.4 0 0 0 0 1 5
1746 2 3.4 -8.6 0 0 0 0 1 5
1780 2 3.4 -8.4 0 0 0 0 1 5
1747 2 3.6 -8.6 0 0 0 0 1 5
1781 2 3.6 -8.4 0 0 0 0 1 5
1748 2 3.8 -8.6 0 0 0 0 1 5
1782 2 3.8 -8.4 0 0 0 0 1 5
1749 2 4 -8.6 0 0 0 0 1 5
1750 2 4.2 -8.6 0 0 0 0 1 5
1783 2 4 -8.4 0 0 0 0 1 5
1784 2 4.2 -8.4 0 0 0 0 1 5
1751 2 4.4 -8.6 0 0 0 0 1 5
1752 2 4.6 -8.6 0 0 0 0 1 5
1785 2 4.4 -8.4 0 0 0 0 1 5
1786 2 4.6 -8.4 0 0 0 0 1 5
1753 2 4.8 -8.6 0 0 0 0 1 5
1754 2 5 -8.6 0 0 0 0 1 5
1787 2 4.8 -8.4 0 0 0 0 1 5
1788 2 5 -8.4 0 0 0 0 1 5
1755 2 5.2 -8.6 0 0 0 0 1 5
1756 2 5.4 -8.6 0 0 0 0 1 5
1789 2 5.2 -8.4 0 0 0 0 1 5
1790 2 5.4 -8.4 0 0 0 0 1 5
1757 2 5.6 -8.6 0 0 0 0 1 5
1791 2 5.6 -8.4 0 0 0 0 1 5
1758 2 5.8 -8.6 0 0 0 0 1 5
1792 2 5.8 -8.4 0 0 0 0 1 5
1759 2 6 -8.6 0 0 0 0 1 5
1793 2 6 -8.4 0 0 0 0 1 5
1760 2 6.2 -8.6 0 0 0 0 1 5
1761 2 6.4 -8.6 0 0 0 0 1 5
1794 2 6.2 -8.4 0 0 0 0 1 5
1795 2 6.4 -8.4 0 0 0 0 1 5
1762 2 6.6 -8.6 0 0 0 0 1 5
1763 2 6.8 -8.6 0 0 0 0 1 5
1796 2 6.6 -8.4 0 0 0 0 1 5
1797 2 6.8 -8.4 0 0 0 0 1 5
1764 2 7 -8.6 0 0 0 0 1 5
1765 2 7.2 -8.6 0 0 0 0 1 5
1798 2 7 -8.4 0 0 0 0 1 5
1799 2 7.2 -8.4 0 0 0 0 1 5
1807 2 2 -8.2 0 0 0 0 1 5
1841 2 2 -8 0 0 0 0 1 5
1808 2 2.2 -8.2 0 0 0 0 1 5
1809 2 2.4 -8.2 0 0 0 0 1 5
1842 2 2.2 -8 0 0 0 0 1 5
1843 2 2.4 -8 0 0 0 0 1 5
1810 2 2.6 -8.2 0 0 0 0 1 5
1811 2 2.8 -8.2 0 0 0 0 1 5
1844 2 2.6 -8 0 0 0 0 1 5
1845 2 2.8 -8 0 0 0 0 1 5
1812 2 3 -8.2 0 0 0 0 1 5
1846 2 3 -8 0 0 0 0 1 5
1813 2 3.2 -8.2 0 0 0 0 1 5
1847 2 3.2 -8 0 0 0 0 1 5
1814 2 3.4 -8.2 0 0 0 0 1 5
1848 2 3.4 -8 0 0 0 0 1 5
1815 2 3.6 -8.2 0 0 0 0 1 5
1849 2 3.6 -8 0 0 0 0 1 5
1816 2 3.8 -8.2 0 0 0 0 1 5
1850 2 3.8 -8 0 0 0 0 1 5
1817 2 4 -8.2 0 0 0 0 1 5
1818 2 4.2 -8.2 0 0 0 0 1 5
1851 2 4 -8 0 0 0 0 1 5
1852 2 4.2 -8 0 0 0 0 1 5
1819 2 4.4 -8.2 0 0 0 0 1 5
1820 2 4.6 -8.2 0 0 0 0 1 5
1853 2 4.4 -8 0 0 0 0 1 5
1854 2 4.6 -8 0 0 0 0 1 5
1821 2 4.8 -8.2 0 0 0 0 1 5
1822 2 5 -8.2 0 0 0 0 1 5
1855 2 4.8 -8 0 0 0 0 1 5
1856 2 5 -8 0 0 0 0 1 5
1823 2 5.2 -8.2 0 0 0 0 1 5
1824 2 5.4 -8.2 0 0 0 0 1 5
1857 2 5.2 -8 0 0 0 0 1 5
1858 2 5.4 -8 0 0 0 0 1 5
1825 2 5.6 -8.2 0 0 0 0 1 5
1859 2 5.6 -8 0 0 0 0 1 5
1826 2 5.8 -8.2 0 0 0 0 1 5
1860 2 5.8 -8 0 0 0 0 1 5
1827 2 6 -8.2 0 0 0 0 1 5
1861 2 6 -8 0 0 0 0 1 5
1828 2 6.2 -8.2 0 0 0 0 1 5
1829 2 6.4 -8.2 0 0 0 0 1 5
1862 2 6.2 -8 0 0 0 0 1 5
1863 2 6.4 -8 0 0 0 0 1 5
1830 2 6.6 -8.2 0 0 0 0 1 5
1831 2 6.8 -8.2 0 0 0 0 1 5
1864 2 6.6 -8 0 0 0 0 1 5
1865 2 6.8 -8 0 0 0 0 1 5
1832 2 7 -8.2 0 0 0 0 1 5
1833 2 7.2 -8.2 0 0 0 0 1 5
1866 2 7 -8 0 0 0 0 1 5
1867 2 7.2 -8 0 0 0 0 1 5
1875 2 2 -7.8 0 0 0 0 1 5
1909 2 2 -7.6 0 0 0 0 1 5
1943 2 2 -7.4 0 0 0 0 0.999011 5
1876 2 2.2 -7.8 0 0 0 0 1 5
1877 2 2.4 -7.8 0 0 0 0 1 5
1910 2 2.2 -7.6 0 0 0 0 1 5
1911 2 2.4 -7.6 0 0 0 0 1 5
1944 2 2.2 -7.4 0 0 0 0 0.997518 5
1945 2 2.4 -7.4 0 0 0 0 1.00088 5
1878 2 2.6 -7.8 0 0 0 0 1 5
1879 2 2.8 -7.8 0 0 0 0 1 5
1912 2 2.6 -7.6 0 0 0 0 1 5
1913 2 2.8 -7.6 0 0 0 0 1 5
1946 2 2.6 -7.4 0 0 0 0 0.99914 5
1947 2 2.8 -7.4 0 0 0 0 0.999542 5
1880 2 3 -7.8 0 0 0 0 1 5
1914 2 3 -7.6 0 0 0 0 1 5
1948 2 3 -7.4 0 0 0 0 1.00084 5
1881 2 3.2 -7.8 0 0 0 0 1 5
1915 2 3.2 -7.6 0 0 0 0 1 5
1949 2 3.2 -7.4 0 0 0 0 0.999046 5
1882 2 3.4 -7.8 0 0 0 0 1 5
1916 2 3.4 -7.6 0 0 0 0 1 5
1950 2 3.4 -7.4 0 0 0 0 1.00071 5
1883 2 3.6 -7.8 0 0 0 0 1 5
1917 2 3.6 -7.6 0 0 0 0 1 5
1951 2 3.6 -7.4 0 0 0 0 0.99884 5
1884 2 3.8 -7.8 0 0 0 0 1 5
1918 2 3.8 -7.6 0 0 0 0 1 5
1952 2 3.8 -7.4 0 0 0 0 1.02436 5
1885 2 4 -7.8 0 0 0 0 1 5
1886 2 4.2 -7.8 0 0 0 0 1 5
1919 2 4 -7.6 0 0 0 0 1 5
1920 2 4.2 -7.6 0 0 0 0 1 5
1953 2 4 -7.4 0 0 0 0 1.03619 5
1954 2 4.2 -7.4 0 0 0 0 1.04429 5
1887 2 4.4 -7.8 0 0 0 0 1 5
1888 2 4.6 -7.8 0 0 0 0 1 5
1921 2 4.4 -7.6 0 0 0 0 1 5
1922 2 4.6 -7.6 0 0 0 0 1 5
1955 2 4.4 -7.4 0 0 0 0 1.03804 5
1956 2 4.6 -7.4 0 0 0 0 1.0358 5
1889 2 4.8 -7.8 0 0 0 0 1 5
1890 2 5 -7.8 0 0 0 0 1 5
1923 2 4.8 -7.6 0 0 0 0 1 5
1924 2 5 -7.6 0 0 0 0 1 5
1957 2 4.8 -7.4 0 0 0 0 1.03518 5
1958 2 5 -7.4 0 0 0 0 1.03475 5
1891 2 5.2 -7.8 0 0 0 0 1 5
1892 2 5.4 -7.8 0 0 0 0 1 5
1925 2 5.2 -7.6 0 0 0 0 1 5
1926 2 5.4 -7.6 0 0 0 0 1 5
1959 2 5.2 -7.4 0 0 0 0 1.03447 5
1960 2 5.4 -7.4 0 0 0 0 1.03427 5
1893 2 5.6 -7.8 0 0 0 0 1 5
1927 2 5.6 -7.6 0 0 0 0 1 5
1961 2 5.6 -7.4 0 0 0 0 1.03436 5
1894 2 5.8 -7.8 0 0 0 0 1 5
1928 2 5.8 -7.6 0 0 0 0 1 5
1962 2 5.8 -7.4 0 0 0 0 1.03446 5
1895 2 6 -7.8 0 0 0 0 1 5
1929 2 6 -7.6 0 0 0 0 1 5
1963 2 6 -7.4 0 0 0 0 1.03441 5
1896 2 6.2 -7.8 0 0 0 0 1 5
1897 2 6.4 -7.8 0 0 0 0 1 5
1930 2 6.2 -7.6 0 0 0 0 1 5
1931 2 6.4 -7.6 0 0 0 0 1 5
1964 2 6.2 -7.4 0 0 0 0 1.03417 5
1965 2 6.4 -7.4 0 0 0 0 1.03431 5
1898 2 6.6 -7.8 0 0 0 0 1 5
1899 2 6.8 -7.8 0 0 0 0 1 5
1932 2 6.6 -7.6 0 0 0 0 1 5
1933 2 6.8 -7.6 0 0 0 0 1 5
1966 2 6.6 -7.4 0 0 0 0 1.03452 5
1967 2 6.8 -7.4 0 0 0 0 1.03449 5
1900 2 7 -7.8 0 0 0 0 1 5
1901 2 7.2 -7.8 0 0 0 0 1 5
1934 2 7 -7.6 0 0 0 0 1 5
1935 2 7.2 -7.6 0 0 0 0 1 5
1968 2 7 -7.4 0 0 0 0 1.03455 5
1969 2 7.2 -7.4 0 0 0 0 1.03462 5
1977 2 2 -7.2 0 0 0 0 0.99875 5
2011 2 2 -7 0 0 0 0 1.00017 5
1978 2 2.2 -7.2 0 0 0 0 0.999342 5
1979 2 2.4 -7.2 0 0 0 0 1.00091 5
2012 2 2.2 -7 0 0 0 0 0.999436 5
2013 2 2.4 -7 0 0 0 0 1.00017 5
1980 2 2.6 -7.2 0 0 0 0 0.998215 5
1981 2 2.8 -7.2 0 0 0 0 1.00034 5
2014 2 2.6 -7 0 0 0 0 0.999165 5
2015 2 2.8 -7 0 0 0 0 1.00014 5
1982 2 3 -7.2 0 0 0 0 1.0012 5
2016 2 3 -7 0 0 0 0 1.00062 5
1983 2 3.2 -7.2 0 0 0 0 0.999204 5
2017 2 3.2 -7 0 0 0 0 0.999666 5
1984 2 3.4 -7.2 0 0 0 0 0.999201 5
2018 2 3.4 -7 0 0 0 0 0.999759 5
1985 2 3.6 -7.2 0 0 0 0 1.00224 5
2019 2 3.6 -7 0 0 0 0 1.00305 5
1986 2 3.8 -7.2 0 0 0 0 1.0178 5
2020 2 3.8 -7 0 0 0 0 1.01568 5
1987 2 4 -7.2 0 0 0 0 1.03043 5
1988 2 4.2 -7.2 0 0 0 0 1.03978 5
2021 2 4 -7 0 0 0 0 1.02776 5
2022 2 4.2 -7 0 0 0 0 1.03802 5
1989 2 4.4 -7.2 0 0 0 0 1.04099 5
1990 2 4.6 -7.2 0 0 0 0 1.03706 5
2023 2 4.4 -7 0 0 0 0 1.04177 5
2024 2 4.6 -7 0 0 0 0 1.0382 5
1991 2 4.8 -7.2 0 0 0 0 1.03599 5
1992 2 5 -7.2 0 0 0 0 1.03573 5
2025 2 4.8 -7 0 0 0 0 1.03677 5
2026 2 5 -7 0 0 0 0 1.03648 5
1993 2 5.2 -7.2 0 0 0 0 1.03556 5
1994 2 5.4 -7.2 0 0 0 0 1.03537 5
2027 2 5.2 -7 0 0 0 0 1.03637 5
2028 2 5.4 -7 0 0 0 0 1.03612 5
1995 2 5.6 -7.2 0 0 0 0 1.03526 5
2029 2 5.6 -7 0 0 0 0 1.03589 5
1996 2 5.8 -7.2 0 0 0 0 1.03528 5
2030 2 5.8 -7 0 0 0 0 1.03588 5
1997 2 6 -7.2 0 0 0 0 1.03517 5
2031 2 6 -7 0 0 0 0 1.03573 5
1998 2 6.2 -7.2 0 0 0 0 1.03507 5
1999 2 6.4 -7.2 0 0 0 0 1.03507 5
2032 2 6.2 -7 0 0 0 0 1.03564 5
2033 2 6.4 -7 0 0 0 0 1.03557 5
2000 2 6.6 -7.2 0 0 0 0 1.03505 5
2001 2 6.8 -7.2 0 0 0 0 1.03513 5
2034 2 6.6 -7 0 0 0 0 1.03552 5
2035 2 6.8 -7 0 0 0 0 1.03565 5
2002 2 7 -7.2 0 0 0 0 1.03518 5
2003 2 7.2 -7.2 0 0 0 0 1.03517 5
2036 2 7 -7 0 0 0 0 1.03571 5
2037 2 7.2 -7 0 0 0 0 1.03567 5
14312 1 1.20188 -6.75103 0.02 0 0 0 1 2
14314 1 1.20738 -6.56461 0.02 0 -4.02981e-13 -5.33657e-14 1 2
14313 1 1.398 -6.76478 0.02 0 -1.58441e-06 -8.10899e-07 1 2
14315 1 1.40799 -6.57203 0.02 0 -3.60754e-10 1.24529e-08 1 2
14316 1 1.59364 -6.72967 0.02 0 -0.000160377 -6.1017e-05 1 2
14318 1 1.61949 -6.55761 0.02 0 -1.19419e-06 2.02621e-05 1 2
14317 1 1.79776 -6.77955 0.02 0 -0.00292164 -0.00102709 1 2
14319 1 1.81839 -6.58151 0.02 0 -0.000116872 0.000213917 1 2
14320 1 2.01903 -6.76313 0.02 0 -0.00414269 -0.000569349 1 2
14322 1 2.01689 -6.58016 0.02 0 -6.91502e-05 0.000310088 1 2
14321 1 2.21907 -6.73379 0.02 0 -0.00256546 -0.000405002 1 2
14323 1 2.21931 -6.55034 0.02 0 0.000196528 0.000398686 1 2
14324 1 2.4136 -6.7694 0.02 0 -0.00322358 -0.000468519 1 2
14326 1 2.41327 -6.56871 0.02 0 0.000227997 0.000438 1 2
14325 1 2.62513 -6.75794 0.02 0 -0.00310942 -0.00043678 1 2
14327 1 2.60244 -6.57403 0.02 0 9.70244e-05 0.000396562 1 2
14328 1 2.82039 -6.73064 0.02 0 -0.00237673 -0.00035563 1 2
14330 1 2.8048 -6.55615 0.02 0 0.000170192 0.000368691 1 2
13969 1 3.21881 -6.75534 0.02 0 -0.00269895 -0.000527829 1 2
13968 1 3.2458 -6.58047 0.02 0 2.26981e-05 0.000481537 1 2
14329 1 3.01303 -6.76686 0.02 0 -0.00312341 -0.000459843 1 2
14331 1 3.02683 -6.58062 0.02 0 0.000117489 0.000411301 1 2
13970 1 3.42252 -6.7545 0.02 0 -0.00301968 -0.000476263 1 2
13971 1 3.62134 -6.73795 0.02 0 -0.00376064 -0.000194181 1 2
13972 1 3.46221 -6.57021 0.02 0 7.26929e-05 0.000569342 1 2
13973 1 3.66837 -6.55898 0.02 0 -0.00125497 0.0006747 1 2
13974 1 3.81891 -6.75641 0.02 0 -0.00907428 0.000195534 1 2
13975 1 3.99969 -6.75453 0.02 0 -0.00774471 0.000204858 1.01933 2
13976 1 3.86466 -6.56659 0.02 0 -0.00475318 0.000785212 1 2
13977 1 3.99966 -6.5703 0.02 0 -0.00455382 0.000585108 1.0297 2
13978 1 4.10913 -6.66657 0.00909336 0.00207116 -0.000806427 -0.000530815 1.04158 0
13980 1 4.18609 -6.49379 0.0114943 0.00293272 3.29626e-05 -9.62407e-05 1.04563 0
13979 1 4.02227 -6.82195 0.00151229 -0.00105293 -0.000231933 0.000119621 1.04467 0
13981 1 3.99996 -6.53278 0.02 0 -0.00682711 0.000982011 1.03082 2
13982 1 4.37497 -6.54702 0.0111041 0.00218326 2.33892e-06 -4.84345e-06 1.04177 0
13984 1 4.25693 -6.60918 0.00959825 0.00199969 -0.000180669 -0.000134779 1.04501 0
13983 1 4.22692 -6.77693 0.00434439 -0.000779652 -0.00041435 5.87163e-06 1.04905 0
13640 1 4.42778 -6.66725 0.00808524 0.000827314 -1.34803e-05 2.33327e-06 1.04001 0
13986 1 4.57634 -6.57586 0.00976317 0.00161889 2.58568e-05 1.36941e-05 1.03739 0
13644 1 4.47635 -6.78801 0.00486556 -0.000354386 -4.04897e-07 6.57161e-06 1.04075 0
13641 1 4.70848 -6.6098 0.00804534 0.00113934 1.86895e-05 6.88753e-06 1.03655 0
13645 1 4.89083 -6.46461 0.00928804 0.00160106 1.70172e-05 -8.45801e-07 1.0367 0
13649 1 4.64561 -6.76538 0.00473067 -3.03663e-05 1.10511e-05 5.28903e-06 1.03828 0
13656 1 4.85433 -6.6284 0.00660951 0.000816588 1.29869e-05 1.85443e-06 1.03639 0
13648 1 5.02223 -6.54802 0.00719496 0.00093998 1.55641e-05 -1.21732e-06 1.03634 0
13274 1 4.82185 -6.79137 0.00329748 -0.000333558 6.1991e-06 7.64355e-07 1.03827 0
13652 1 5.16571 -6.51538 0.00701582 0.00084814 1.7283e-05 -3.52626e-06 1.03616 0
13276 1 4.99687 -6.69753 0.00429909 0.000278585 9.96774e-06 -3.66178e-07 1.03648 0
13280 1 5.2141 -6.64615 0.0045164 0.000304513 1.40041e-05 -2.98902e-06 1.0359 0
13289 1 5.10936 -6.79544 0.0023262 -0.000448815 7.83725e-06 -2.41583e-06 1.03761 0
13271 1 5.42851 -6.53697 0.00567964 0.000528961 1.82399e-05 -6.51517e-06 1.0356 0
12936 1 5.36655 -6.66924 0.00369067 0.000137017 1.44468e-05 -4.9594e-06 1.03579 0
13284 1 5.56929 -6.54873 0.00507669 0.000441317 1.83534e-05 -7.97911e-06 1.03539 0
12949 1 5.33824 -6.83026 0.00178669 -0.000665905 9.04333e-06 -5.04927e-06 1.03744 0
13281 1 5.7014 -6.49997 0.00535554 0.000513775 1.86658e-05 -9.77847e-06 1.03536 0
12953 1 5.53811 -6.70771 0.00272144 3.25915e-05 1.38566e-05 -6.06215e-06 1.03564 0
12604 1 5.73263 -6.65338 0.00314929 0.000178929 1.56164e-05 -7.54945e-06 1.03527 0
12617 1 5.68876 -6.81336 0.00142889 -0.000513101 1.06964e-05 -6.37248e-06 1.03691 0
12941 1 5.90341 -6.64307 0.00301481 0.000194377 1.42091e-05 -7.90445e-06 1.03515 0
12288 1 6.07794 -6.58924 0.00346582 0.000292687 1.26117e-05 -8.45534e-06 1.03493 0
11882 1 5.91461 -6.80236 0.00134765 -0.000460245 9.21843e-06 -5.96518e-06 1.03677 0
11544 1 6.11202 -6.70943 0.00196256 2.68495e-05 9.53041e-06 -6.2559e-06 1.03528 0
12601 1 6.2767 -6.60319 0.00305798 0.000284492 8.23962e-06 -6.98151e-06 1.03486 0
12612 1 6.43452 -6.58448 0.00312588 0.000298314 4.78864e-06 -6.04671e-06 1.03486 0
11552 1 6.21941 -6.80973 0.0010895 -0.000493008 5.95306e-06 -3.86294e-06 1.03665 0
11164 1 6.394 -6.75151 0.0014576 -0.000209271 4.3245e-06 -3.52776e-06 1.03593 0
12292 1 6.58303 -6.58426 0.00301559 0.000296103 1.61543e-06 -4.65401e-06 1.03486 0
11323 1 6.55796 -6.7604 0.00129944 -0.000290304 1.90497e-06 -2.09864e-06 1.03613 0
12295 1 6.7345 -6.59317 0.00284283 0.000283821 -1.42338e-06 -3.26344e-06 1.03485 0
11887 1 6.88 -6.54007 0.00334658 0.000332944 -4.04712e-06 -2.58013e-06 1.03481 0
10507 1 6.72152 -6.7616 0.00122463 -0.000283635 -2.37351e-07 -1.05769e-06 1.03614 0
10519 1 6.88694 -6.78898 0.00106586 -0.000403336 -1.69629e-06 9.45055e-08 1.03652 0
11891 1 6.96914 -6.62675 0.00241486 0.000232226 -3.96714e-06 -1.28542e-06 1.03489 0
11547 1 7.11197 -6.60055 0.00266618 0.000248911 -5.33089e-06 -7.70218e-07 1.03486 0
11172 1 7.26084 -6.59453 0.00270789 0.000240807 -5.84479e-06 -2.89287e-07 1.03487 0
10189 1 7.07885 -6.77831 0.00112986 -0.000343369 -2.9115e-06 5.3761e-07 1.03638 0
3109 1 7.26174 -6.77074 0.00116764 -0.000325491 -3.45942e-06 8.19274e-07 1.03629 0
14332 1 1.22264 -6.37867 0.02 0 0 0 1 2
14333 1 1.22863 -6.19455 0.02 0 0 0 1 2
14334 1 1.42075 -6.38701 0.02 0 3.00062e-10 3.15772e-09 1 2
14335 1 1.45753 -6.20618 0.02 0 1.53265e-11 1.16706e-10 1 2
14336 1 1.62927 -6.38021 0.02 0 3.87207e-07 4.25766e-06 1 2
14338 1 1.67547 -6.19941 0.02 0 5.37351e-08 3.45413e-07 1 2
14337 1 1.83284 -6.38326 0.02 0 6.10457e-06 4.28818e-05 1 2
14339 1 1.87806 -6.18549 0.02 0 6.25591e-07 3.82275e-06 1 2
14340 1 2.02577 -6.39432 0.02 0 5.21629e-05 9.41307e-05 1 2
14342 1 2.07345 -6.19539 0.02 0 3.45739e-06 1.33253e-05 1 2
14341 1 2.22216 -6.35838 0.02 0 7.98057e-05 0.000111651 1 2
14343 1 2.27049 -6.16162 0.02 0 3.63581e-06 1.01301e-05 1 2
14344 1 2.41983 -6.37339 0.02 0 0.000106379 0.00014479 1 2
14346 1 2.46381 -6.18031 0.02 0 5.73344e-06 1.4187e-05 1 2
14345 1 2.62738 -6.38819 0.02 0 0.000104165 0.000139493 1 2
14347 1 2.64995 -6.19007 0.02 0 6.55842e-06 1.6399e-05 1 2
14348 1 2.8556 -6.38878 0.02 0 0.000106732 0.000183926 1 2
14350 1 2.83787 -6.20412 0.02 0 8.4105e-06 1.81883e-05 1 2
13988 1 3.26308 -6.2288 0.02 0 1.1305e-05 2.16441e-05 1 2
13989 1 3.27257 -6.4079 0.02 0 0.000115927 0.000202205 1 2
14349 1 3.06771 -6.40489 0.02 0 0.000125421 0.000220751 1 2
14351 1 3.0423 -6.22343 0.02 0 1.08791e-05 1.99726e-05 1 2
13990 1 3.47494 -6.38721 0.02 0 5.10317e-05 0.000162445 1 2
13991 1 3.48498 -6.20378 0.02 0 -4.1173e-05 1.7347e-05 1 2
13992 1 3.68227 -6.3754 0.02 0 -0.00145418 0.000180915 1 2
13993 1 3.69538 -6.18987 0.02 0 -0.00180733 -3.43134e-05 1 2
13994 1 3.8865 -6.37705 0.02 0 -0.00530306 9.57775e-05 1 2
13995 1 3.89877 -6.184 0.02 0 -0.00620718 -0.000199766 1 2
13996 1 4.04747 -6.3517 0.0114811 0.00159273 0.000241176 3.41642e-05 1.03738 0
13997 1 4.06927 -6.15687 0.0106603 0.00185352 0.000244543 0.000107735 1.03829 0
13985 1 4.49423 -6.44884 0.0122263 0.00259883 2.76976e-05 1.85223e-05 1.0386 0
13998 1 4.00038 -6.39539 0.0183034 5.74655e-05 -0.00678628 0.000229862 1.03106 0
13999 1 4.21912 -6.28828 0.0113986 0.00323624 0.000176027 2.8385e-05 1.04416 0
14000 1 3.99961 -6.21327 0.02 0 -0.00731061 0.000353501 1.03057 2
14001 1 4.22569 -6.10338 0.0106717 0.00309668 6.69798e-05 6.74189e-05 1.04178 0
13642 1 4.32994 -6.38918 0.0123518 0.00338308 8.82741e-05 3.36825e-05 1.04278 0
14002 1 4.47002 -6.28597 0.0132595 0.00352852 2.67704e-05 1.24589e-05 1.03837 0
14004 1 4.47959 -6.07833 0.0133027 0.00388752 1.42734e-05 -8.2575e-06 1.03733 0
13663 1 4.3568 -6.18883 0.0127725 0.00386506 5.46543e-05 1.80915e-05 1.04005 0
13987 1 4.6295 -6.3666 0.012193 0.00282432 1.97115e-05 4.60431e-06 1.03719 0
13646 1 4.74975 -6.44603 0.0105324 0.00206002 1.87462e-05 2.11251e-06 1.03683 0
14003 1 4.60064 -6.19671 0.0131057 0.00360732 1.74758e-05 -2.98088e-06 1.0371 0
14005 1 4.60176 -5.99586 0.0132633 0.00389492 1.93119e-05 -1.16302e-05 1.03674 0
14006 1 4.72862 -6.10259 0.0128217 0.00357429 1.87076e-05 -9.09364e-06 1.03701 0
13662 1 4.7699 -6.26447 0.012 0.00288713 1.87917e-05 -4.68638e-06 1.03707 0
13643 1 4.91386 -6.28064 0.0110631 0.00236617 1.93778e-05 -5.87288e-06 1.03706 0
13660 1 4.88147 -6.0993 0.0122483 0.00317131 1.99925e-05 -1.11658e-05 1.03712 0
13647 1 5.03871 -6.37029 0.00952394 0.00166028 1.88889e-05 -4.64731e-06 1.03678 0
13664 1 5.01719 -6.02279 0.0120994 0.0030424 1.93583e-05 -1.42147e-05 1.03701 0
13665 1 5.04831 -6.18459 0.0110974 0.00239645 1.97243e-05 -1.00261e-05 1.03697 0
13650 1 5.20476 -6.16928 0.0105639 0.00207775 1.93091e-05 -1.15088e-05 1.03666 0
13653 1 5.34046 -6.30028 0.00885824 0.00133893 1.96628e-05 -9.65524e-06 1.0363 0
13651 1 5.18275 -6.33921 0.0091441 0.00146598 1.9444e-05 -7.10274e-06 1.03657 0
13654 1 5.38249 -6.14258 0.0100929 0.00183144 1.87667e-05 -1.32215e-05 1.03633 0
13669 1 5.3144 -6.01187 0.0112277 0.0024026 1.80277e-05 -1.56358e-05 1.03646 0
13659 1 5.31966 -6.45624 0.00718097 0.0008515 1.89933e-05 -6.47224e-06 1.03601 0
13672 1 5.55658 -6.07659 0.0099922 0.001789 1.76181e-05 -1.52197e-05 1.0361 0
13655 1 5.50829 -6.2368 0.00882082 0.00133161 1.91663e-05 -1.22683e-05 1.03608 0
13657 1 5.52558 -6.38383 0.00726213 0.000875815 1.9684e-05 -9.90242e-06 1.03582 0
13677 1 5.68399 -6.15991 0.00890635 0.00137092 1.75819e-05 -1.42262e-05 1.03593 0
13270 1 5.67963 -6.32183 0.00740629 0.000926659 1.88514e-05 -1.2057e-05 1.03574 0
13275 1 5.85582 -6.16398 0.00836355 0.0011948 1.58134e-05 -1.42302e-05 1.03575 0
13279 1 5.82963 -6.33159 0.00686746 0.000814672 1.73739e-05 -1.23707e-05 1.03557 0
12934 1 6.00185 -6.4674 0.00503808 0.000502646 1.49531e-05 -1.04776e-05 1.03515 0
12940 1 5.85183 -6.49231 0.00507967 0.000494898 1.73232e-05 -1.03563e-05 1.03523 0
13273 1 6.0151 -6.11827 0.00834328 0.00118039 1.3007e-05 -1.4059e-05 1.03563 0
13277 1 5.97999 -6.28604 0.0069309 0.000832526 1.47374e-05 -1.26019e-05 1.03551 0
13282 1 6.17941 -6.1712 0.00753455 0.000954914 9.99541e-06 -1.24669e-05 1.03548 0
13285 1 6.12167 -6.32757 0.00622349 0.000695672 1.20466e-05 -1.14957e-05 1.03533 0
13287 1 6.36249 -6.13254 0.00753277 0.00092434 5.67009e-06 -1.10922e-05 1.03541 0
13288 1 6.29486 -6.2896 0.0062682 0.000699057 7.7233e-06 -1.04384e-05 1.03529 0
12944 1 6.19681 -6.46391 0.00472227 0.000477345 1.06925e-05 -9.54133e-06 1.03502 0
12609 1 6.3638 -6.42999 0.00482981 0.000502343 6.44218e-06 -8.46695e-06 1.03501 0
13290 1 6.47182 -6.25285 0.00634146 0.000689895 3.16772e-06 -8.95258e-06 1.03527 0
12945 1 6.52141 -6.40777 0.00486294 0.000499249 2.37735e-06 -7.09376e-06 1.03501 0
12937 1 6.62425 -6.21388 0.00650301 0.000679965 -4.97016e-07 -7.53692e-06 1.03527 0
12600 1 6.67127 -6.41831 0.00463145 0.000464239 -1.06277e-06 -5.42229e-06 1.03496 0
12938 1 6.81082 -6.10228 0.00725135 0.000729023 -4.04323e-06 -6.44013e-06 1.0353 0
12942 1 6.76592 -6.26144 0.00596832 0.000576237 -3.39109e-06 -5.6553e-06 1.03519 0
12950 1 6.93604 -6.2396 0.00604695 0.000536855 -6.13667e-06 -4.19366e-06 1.0352 0
12605 1 6.83835 -6.40095 0.00468479 0.000445603 -4.28899e-06 -3.93188e-06 1.03497 0
12948 1 7.08764 -6.18692 0.00641799 0.00051894 -7.66111e-06 -3.39213e-06 1.03524 0
12132 1 7.01391 -6.39176 0.00468967 0.000414428 -6.53583e-06 -2.56293e-06 1.03499 0
12952 1 7.2521 -6.14886 0.00667801 0.000478725 -8.44112e-06 -2.65294e-06 1.03526 0
12608 1 7.1975 -6.30701 0.00538193 0.000409766 -7.97673e-06 -1.97888e-06 1.03512 0
12616 1 7.16518 -6.45125 0.00411118 0.000358512 -7.15824e-06 -1.33332e-06 1.0349 0
13468 1 5.95294 -0.209429 0.0136145 -0.000237083 5.32396e-06 -4.77814e-06 1.03676 0
13482 1 5.42421 -0.0352488 0.0137121 -0.000181942 1.37377e-05 -3.32667e-06 1.03685 0
13491 1 5.67036 -0.431694 0.0137348 -0.000267106 1.02828e-05 -3.28825e-06 1.03677 0
14352 1 1.23677 -6.01156 0.02 0 0 0 1 2
14353 1 1.24941 -5.82135 0.02 0 0 0 1 2
14354 1 1.44081 -6.02146 0.02 0 0 0 1 2
14355 1 1.45668 -5.82821 0.02 0 0 0 1 2
14356 1 1.64489 -6.01249 0.02 0 6.96762e-11 1.43588e-09 1 2
14358 1 1.6685 -5.82207 0.02 0 0 0 1 2
14357 1 1.85044 -5.99312 0.02 0 1.01115e-09 1.58e-08 1 2
14359 1 1.88417 -5.80529 0.02 0 3.35159e-12 3.68902e-11 1 2
14360 1 2.05784 -5.99713 0.02 0 1.10184e-08 8.57007e-08 1 2
14362 1 2.08772 -5.79812 0.02 0 2.17994e-11 1.90165e-10 1 2
14361 1 2.26135 -5.96557 0.02 0 1.49431e-08 5.2958e-08 1 2
14363 1 2.28762 -5.7706 0.02 0 2.09907e-12 1.74125e-11 1 2
14364 1 2.46333 -5.9826 0.02 0 1.86364e-08 7.81428e-08 1 2
14366 1 2.48445 -5.7827 0.02 0 7.31836e-12 5.38673e-11 1 2
14365 1 2.65675 -5.96801 0.02 0 7.442e-09 3.51369e-08 1 2
14367 1 2.67591 -5.75519 0.02 0 7.9234e-13 8.83016e-12 1 2
14368 1 2.84472 -6.00986 0.02 0 4.92903e-08 1.96702e-07 1 2
14370 1 2.86157 -5.80721 0.02 0 2.73512e-11 8.63735e-11 1 2
14008 1 3.23864 -5.85696 0.02 0 5.89401e-10 1.92922e-09 1 2
14009 1 3.25859 -6.0486 0.02 0 1.90719e-07 4.8866e-07 1 2
14369 1 3.04762 -6.03906 0.02 0 1.53904e-07 4.19628e-07 1 2
14371 1 3.04871 -5.84507 0.02 0 2.64393e-10 7.42352e-10 1 2
14010 1 3.46415 -6.01867 0.02 0 -2.74067e-05 -8.1089e-07 1 2
14011 1 3.42834 -5.82533 0.02 0 -8.57282e-06 -1.62522e-07 1 2
14012 1 3.62406 -5.81429 0.02 0 -0.00109262 -3.75867e-05 1 2
14013 1 3.67217 -6.00318 0.02 0 -0.00170185 -7.49596e-05 1 2
14015 1 3.82801 -5.80594 0.02 0 -0.00547368 -0.000183816 1 2
14014 1 3.87975 -5.99131 0.02 0 -0.00702513 -0.000158408 1 2
14016 1 3.99974 -5.82386 0.02 0 -0.00516765 0.000380898 1.03049 2
14017 1 4.02544 -5.97694 0.00989032 0.000621903 -5.98337e-05 5.45294e-05 1.03494 0
14020 1 4.02738 -5.76189 0.00934369 0.00159644 -0.000158118 -0.00013502 1.03554 0
14018 1 4.02775 -5.99944 0.00986331 0.000651705 -3.79472e-05 4.62067e-05 1.03509 0
14021 1 4.2287 -5.7863 0.0109611 0.00264575 -0.000154101 -4.15784e-05 1.03981 0
14019 1 4.21176 -5.9285 0.0106478 0.00235977 -0.000129946 8.45195e-05 1.04051 0
14022 1 4.3562 -5.99105 0.0124932 0.00367071 -2.60463e-06 7.81891e-06 1.03858 0
14023 1 4.42235 -5.85814 0.0129279 0.00356493 -4.00857e-06 -7.26648e-06 1.03709 0
14024 1 4.35233 -5.68848 0.0122926 0.00292763 4.54079e-06 -2.11084e-05 1.03778 0
14025 1 4.51443 -5.71681 0.0131885 0.00348194 1.65222e-05 -5.18812e-06 1.0363 0
14007 1 4.76326 -5.93446 0.0130189 0.00375261 1.95926e-05 -1.24179e-05 1.03695 0
13680 1 4.72884 -5.75925 0.0132701 0.00376291 1.69286e-05 -1.25772e-05 1.03671 0
13681 1 4.79486 -5.58882 0.0134467 0.00365446 1.2623e-05 -1.51041e-05 1.03673 0
14026 1 4.59775 -5.84801 0.0132659 0.00380685 2.19187e-05 -9.44467e-06 1.0365 0
14027 1 4.63732 -5.60969 0.0134237 0.00349451 1.09952e-05 -8.69431e-06 1.03629 0
13661 1 4.90684 -5.90154 0.0127774 0.00355159 1.84228e-05 -1.52024e-05 1.03707 0
13687 1 4.88667 -5.73982 0.0131415 0.0037013 1.58703e-05 -1.65768e-05 1.03699 0
13668 1 5.1643 -5.99553 0.0117875 0.00276918 1.85109e-05 -1.55064e-05 1.03674 0
13666 1 5.05842 -5.84341 0.0126498 0.00335741 1.78389e-05 -1.79478e-05 1.03692 0
13682 1 5.04151 -5.67783 0.0131093 0.00358392 1.58244e-05 -1.93457e-05 1.03691 0
13670 1 5.21903 -5.82818 0.0123985 0.00307496 1.70215e-05 -1.87693e-05 1.03663 0
13684 1 5.1917 -5.67638 0.0129616 0.00337828 1.62322e-05 -2.07247e-05 1.03668 0
13667 1 5.36275 -5.84317 0.0119936 0.00277686 1.66815e-05 -1.87372e-05 1.03639 0
13688 1 5.32419 -5.60265 0.0129988 0.00328562 1.58335e-05 -2.18195e-05 1.03649 0
13674 1 5.43967 -5.69828 0.0124513 0.00295879 1.59182e-05 -2.07519e-05 1.03632 0
13272 1 5.79982 -6.02348 0.00965009 0.00163506 1.53096e-05 -1.5861e-05 1.03586 0
13673 1 5.48053 -5.95159 0.0110783 0.00229088 1.69298e-05 -1.70858e-05 1.03622 0
13671 1 5.54969 -5.8023 0.0117227 0.00256497 1.58626e-05 -1.9226e-05 1.03617 0
13692 1 5.61105 -5.60701 0.0124781 0.00286738 1.54285e-05 -2.13095e-05 1.03617 0
13658 1 5.6709 -5.9412 0.0105897 0.00202815 1.58697e-05 -1.71444e-05 1.036 0
13676 1 5.83185 -5.80811 0.0109986 0.00214022 1.41695e-05 -1.81426e-05 1.03589 0
13675 1 5.69063 -5.76343 0.0115827 0.0024396 1.51042e-05 -1.93093e-05 1.03604 0
13678 1 5.78075 -5.62 0.0120907 0.0025989 1.46731e-05 -2.03313e-05 1.036 0
13278 1 6.19476 -6.01641 0.0087644 0.00126826 9.25817e-06 -1.36431e-05 1.03554 0
13679 1 5.93242 -5.66202 0.0115861 0.00230956 1.343e-05 -1.89097e-05 1.03586 0
13296 1 5.91725 -5.92373 0.0100553 0.00175992 1.35383e-05 -1.6462e-05 1.03577 0
13294 1 6.03824 -5.76827 0.0107786 0.00196303 1.19926e-05 -1.71389e-05 1.03573 0
13291 1 6.05183 -5.95697 0.00950845 0.00153381 1.17316e-05 -1.53102e-05 1.03565 0
13292 1 6.18493 -5.84106 0.0100306 0.00164874 9.63404e-06 -1.52742e-05 1.03559 0
13293 1 6.1789 -5.667 0.0111022 0.0019839 1.0405e-05 -1.66738e-05 1.03566 0
13286 1 6.52169 -6.06595 0.0078402 0.000944224 2.03578e-06 -9.93169e-06 1.03538 0
13283 1 6.35038 -5.97614 0.00878646 0.00122865 6.04627e-06 -1.24932e-05 1.03547 0
13298 1 6.33874 -5.81304 0.00994636 0.0015469 6.92416e-06 -1.39476e-05 1.03551 0
13299 1 6.33712 -5.64127 0.010996 0.00183772 7.96342e-06 -1.51762e-05 1.03556 0
13297 1 6.48655 -5.72624 0.0102858 0.00154119 4.53932e-06 -1.29169e-05 1.03546 0
13302 1 6.50404 -5.89682 0.00913059 0.0012492 3.14275e-06 -1.15677e-05 1.03541 0