ITEM: TIMESTEP
80000
ITEM: NUMBER OF ATOMS
10357
ITEM: BOX BOUNDS ff ff pp
0.0000000000000000e+00 2.2000000000000000e+01
-1.0000000000000000e+01 1.0000000000000000e+01
-2.0000000000000000e-02 2.0000000000000000e-02
ITEM: ATOMS id type x y vx vy fx fy c_den c_phase
1501 2 2 -10 0 0 0 0 1 4
1551 2 2 -9.8 0 0 0 0 1 4
1601 2 2 -9.6 0 0 0 0 1 4
1502 2 2.2 -10 0 0 0 0 1 4
1503 2 2.4 -10 0 0 0 0 1 4
1552 2 2.2 -9.8 0 0 0 0 1 4
1553 2 2.4 -9.8 0 0 0 0 1 4
1602 2 2.2 -9.6 0 0 0 0 1 4
1603 2 2.4 -9.6 0 0 0 0 1 4
1504 2 2.6 -10 0 0 0 0 1 4
1505 2 2.8 -10 0 0 0 0 1 4
1554 2 2.6 -9.8 0 0 0 0 1 4
1555 2 2.8 -9.8 0 0 0 0 1 4
1604 2 2.6 -9.6 0 0 0 0 1 4
1605 2 2.8 -9.6 0 0 0 0 1 4
1506 2 3 -10 0 0 0 0 1 4
1507 2 3.2 -10 0 0 0 0 1 4
1556 2 3 -9.8 0 0 0 0 1 4
1557 2 3.2 -9.8 0 0 0 0 1 4
1606 2 3 -9.6 0 0 0 0 1 4
1607 2 3.2 -9.6 0 0 0 0 1 4
1508 2 3.4 -10 0 0 0 0 1 4
1509 2 3.6 -10 0 0 0 0 1 4
1558 2 3.4 -9.8 0 0 0 0 1 4
1559 2 3.6 -9.8 0 0 0 0 1 4
1608 2 3.4 -9.6 0 0 0 0 1 4
1609 2 3.6 -9.6 0 0 0 0 1 4
1510 2 3.8 -10 0 0 0 0 1 4
1560 2 3.8 -9.8 0 0 0 0 1 4
1610 2 3.8 -9.6 0 0 0 0 1 4
1511 2 4 -10 0 0 0 0 1 4
1561 2 4 -9.8 0 0 0 0 1 4
1611 2 4 -9.6 0 0 0 0 1 4
1512 2 4.2 -10 0 0 0 0 1 4
1562 2 4.2 -9.8 0 0 0 0 1 4
1612 2 4.2 -9.6 0 0 0 0 1 4
1513 2 4.4 -10 0 0 0 0 1 4
1514 2 4.6 -10 0 0 0 0 1 4
1563 2 4.4 -9.8 0 0 0 0 1 4
1564 2 4.6 -9.8 0 0 0 0 1 4
1613 2 4.4 -9.6 0 0 0 0 1 4
1614 2 4.6 -9.6 0 0 0 0 1 4
1515 2 4.8 -10 0 0 0 0 1 4
1516 2 5 -10 0 0 0 0 1 4
1565 2 4.8 -9.8 0 0 0 0 1 4
1566 2 5 -9.8 0 0 0 0 1 4
1615 2 4.8 -9.6 0 0 0 0 1 4
1616 2 5 -9.6 0 0 0 0 1 4
1517 2 5.2 -10 0 0 0 0 1 4
1518 2 5.4 -10 0 0 0 0 1 4
1567 2 5.2 -9.8 0 0 0 0 1 4
1568 2 5.4 -9.8 0 0 0 0 1 4
1617 2 5.2 -9.6 0 0 0 0 1 4
1618 2 5.4 -9.6 0 0 0 0 1 4
1519 2 5.6 -10 0 0 0 0 1 4
1520 2 5.8 -10 0 0 0 0 1 4
1569 2 5.6 -9.8 0 0 0 0 1 4
1570 2 5.8 -9.8 0 0 0 0 1 4
1619 2 5.6 -9.6 0 0 0 0 1 4
1620 2 5.8 -9.6 0 0 0 0 1 4
1521 2 6 -10 0 0 0 0 1 4
1522 2 6.2 -10 0 0 0 0 1 4
1571 2 6 -9.8 0 0 0 0 1 4
1572 2 6.2 -9.8 0 0 0 0 1 4
1621 2 6 -9.6 0 0 0 0 1 4
1622 2 6.2 -9.6 0 0 0 0 1 4
1523 2 6.4 -10 0 0 0 0 1 4
1524 2 6.6 -10 0 0 0 0 1 4
1573 2 6.4 -9.8 0 0 0 0 1 4
1574 2 6.6 -9.8 0 0 0 0 1 4
1623 2 6.4 -9.6 0 0 0 0 1 4
1624 2 6.6 -9.6 0 0 0 0 1 4
1525 2 6.8 -10 0 0 0 0 1 4
1526 2 7 -10 0 0 0 0 1 4
1575 2 6.8 -9.8 0 0 0 0 1 4
1576 2 7 -9.8 0 0 0 0 1 4
1625 2 6.8 -9.6 0 0 0 0 1 4
1626 2 7 -9.6 0 0 0 0 1 4
1527 2 7.2 -10 0 0 0 0 1 4
1577 2 7.2 -9.8 0 0 0 0 1 4
1627 2 7.2 -9.6 0 0 0 0 1 4
1528 2 7.4 -10 0 0 0 0 1 4
1529 2 7.6 -10 0 0 0 0 1 4
1578 2 7.4 -9.8 0 0 0 0 1 4
1579 2 7.6 -9.8 0 0 0 0 1 4
1628 2 7.4 -9.6 0 0 0 0 1 4
1629 2 7.6 -9.6 0 0 0 0 1 4
1530 2 7.8 -10 0 0 0 0 1 4
1531 2 8 -10 0 0 0 0 1 4
1580 2 7.8 -9.8 0 0 0 0 1 4
1581 2 8 -9.8 0 0 0 0 1 4
1630 2 7.8 -9.6 0 0 0 0 1 4
1631 2 8 -9.6 0 0 0 0 1 4
1532 2 8.2 -10 0 0 0 0 1 4
1533 2 8.4 -10 0 0 0 0 1 4
1582 2 8.2 -9.8 0 0 0 0 1 4
1583 2 8.4 -9.8 0 0 0 0 1 4
1632 2 8.2 -9.6 0 0 0 0 1 4
1633 2 8.4 -9.6 0 0 0 0 1 4
1534 2 8.6 -10 0 0 0 0 1 4
1535 2 8.8 -10 0 0 0 0 1 4
1584 2 8.6 -9.8 0 0 0 0 1 4
1585 2 8.8 -9.8 0 0 0 0 1 4
1634 2 8.6 -9.6 0 0 0 0 1 4
1635 2 8.8 -9.6 0 0 0 0 1 4
1536 2 9 -10 0 0 0 0 1 4
1537 2 9.2 -10 0 0 0 0 1 4
1586 2 9 -9.8 0 0 0 0 1 4
1587 2 9.2 -9.8 0 0 0 0 1 4
1636 2 9 -9.6 0 0 0 0 1 4
1637 2 9.2 -9.6 0 0 0 0 1 4
1538 2 9.4 -10 0 0 0 0 1 4
1539 2 9.6 -10 0 0 0 0 1 4
1588 2 9.4 -9.8 0 0 0 0 1 4
1589 2 9.6 -9.8 0 0 0 0 1 4
1638 2 9.4 -9.6 0 0 0 0 1 4
1639 2 9.6 -9.6 0 0 0 0 1 4
1540 2 9.8 -10 0 0 0 0 1 4
1590 2 9.8 -9.8 0 0 0 0 1 4
1640 2 9.8 -9.6 0 0 0 0 1 4
1541 2 10 -10 0 0 0 0 1 4
1591 2 10 -9.8 0 0 0 0 1 4
1641 2 10 -9.6 0 0 0 0 1 4
1542 2 10.2 -10 0 0 0 0 1 4
1592 2 10.2 -9.8 0 0 0 0 1 4
1642 2 10.2 -9.6 0 0 0 0 1 4
1543 2 10.4 -10 0 0 0 0 1 4
1593 2 10.4 -9.8 0 0 0 0 1 4
1643 2 10.4 -9.6 0 0 0 0 1 4
1544 2 10.6 -10 0 0 0 0 1 4
1594 2 10.6 -9.8 0 0 0 0 1 4
1644 2 10.6 -9.6 0 0 0 0 1 4
1545 2 10.8 -10 0 0 0 0 1 4
1595 2 10.8 -9.8 0 0 0 0 1 4
1645 2 10.8 -9.6 0 0 0 0 1 4
1651 2 2 -9.4 0 0 0 0 1 4
1701 2 2 -9.2 0 0 0 0 1 4
1652 2 2.2 -9.4 0 0 0 0 1 4
1653 2 2.4 -9.4 0 0 0 0 1 4
1702 2 2.2 -9.2 0 0 0 0 1 4
1703 2 2.4 -9.2 0 0 0 0 1 4
1654 2 2.6 -9.4 0 0 0 0 1 4
1655 2 2.8 -9.4 0 0 0 0 1 4
1704 2 2.6 -9.2 0 0 0 0 1 4
1705 2 2.8 -9.2 0 0 0 0 1 4
1656 2 3 -9.4 0 0 0 0 1 4
1657 2 3.2 -9.4 0 0 0 0 1 4
1706 2 3 -9.2 0 0 0 0 1 4
1707 2 3.2 -9.2 0 0 0 0 1 4
1658 2 3.4 -9.4 0 0 0 0 1 4
1659 2 3.6 -9.4 0 0 0 0 1 4
1708 2 3.4 -9.2 0 0 0 0 1 4
1709 2 3.6 -9.2 0 0 0 0 1 4
1660 2 3.8 -9.4 0 0 0 0 1 4
1710 2 3.8 -9.2 0 0 0 0 1 4
1661 2 4 -9.4 0 0 0 0 1 4
1711 2 4 -9.2 0 0 0 0 1 4
1662 2 4.2 -9.4 0 0 0 0 1 4
1712 2 4.2 -9.2 0 0 0 0 1 4
1663 2 4.4 -9.4 0 0 0 0 1 4
1664 2 4.6 -9.4 0 0 0 0 1 4
1713 2 4.4 -9.2 0 0 0 0 1 4
1714 2 4.6 -9.2 0 0 0 0 1 4
1665 2 4.8 -9.4 0 0 0 0 1 4
1666 2 5 -9.4 0 0 0 0 1 4
1715 2 4.8 -9.2 0 0 0 0 1 4
1716 2 5 -9.2 0 0 0 0 1 4
1667 2 5.2 -9.4 0 0 0 0 1 4
1668 2 5.4 -9.4 0 0 0 0 1 4
1717 2 5.2 -9.2 0 0 0 0 1 4
1718 2 5.4 -9.2 0 0 0 0 1 4
1669 2 5.6 -9.4 0 0 0 0 1 4
1670 2 5.8 -9.4 0 0 0 0 1 4
1719 2 5.6 -9.2 0 0 0 0 1 4
1720 2 5.8 -9.2 0 0 0 0 1 4
1671 2 6 -9.4 0 0 0 0 1 4
1672 2 6.2 -9.4 0 0 0 0 1 4
1721 2 6 -9.2 0 0 0 0 1 4
1722 2 6.2 -9.2 0 0 0 0 1 4
1673 2 6.4 -9.4 0 0 0 0 1 4
1674 2 6.6 -9.4 0 0 0 0 1 4
1723 2 6.4 -9.2 0 0 0 0 1 4
1724 2 6.6 -9.2 0 0 0 0 1 4
1675 2 6.8 -9.4 0 0 0 0 1 4
1676 2 7 -9.4 0 0 0 0 1 4
1725 2 6.8 -9.2 0 0 0 0 1 4
1726 2 7 -9.2 0 0 0 0 1 4
1677 2 7.2 -9.4 0 0 0 0 1 4
1727 2 7.2 -9.2 0 0 0 0 1 4
1678 2 7.4 -9.4 0 0 0 0 1 4
1679 2 7.6 -9.4 0 0 0 0 1 4
1728 2 7.4 -9.2 0 0 0 0 1 4
1729 2 7.6 -9.2 0 0 0 0 1 4
1680 2 7.8 -9.4 0 0 0 0 1 4
1681 2 8 -9.4 0 0 0 0 1 4
1730 2 7.8 -9.2 0 0 0 0 1 4
1731 2 8 -9.2 0 0 0 0 1 4
1682 2 8.2 -9.4 0 0 0 0 1 4
1683 2 8.4 -9.4 0 0 0 0 1 4
1732 2 8.2 -9.2 0 0 0 0 1 4
1733 2 8.4 -9.2 0 0 0 0 1 4
1684 2 8.6 -9.4 0 0 0 0 1 4
1685 2 8.8 -9.4 0 0 0 0 1 4
1734 2 8.6 -9.2 0 0 0 0 1 4
1735 2 8.8 -9.2 0 0 0 0 1 4
1686 2 9 -9.4 0 0 0 0 1 4
1687 2 9.2 -9.4 0 0 0 0 1 4
1736 2 9 -9.2 0 0 0 0 1 4
1737 2 9.2 -9.2 0 0 0 0 1 4
1688 2 9.4 -9.4 0 0 0 0 1 4
1689 2 9.6 -9.4 0 0 0 0 1 4
1738 2 9.4 -9.2 0 0 0 0 1 4
1739 2 9.6 -9.2 0 0 0 0 1 4
1690 2 9.8 -9.4 0 0 0 0 1 4
1740 2 9.8 -9.2 0 0 0 0 1 4
1691 2 10 -9.4 0 0 0 0 1 4
1741 2 10 -9.2 0 0 0 0 1 4
1692 2 10.2 -9.4 0 0 0 0 1 4
1742 2 10.2 -9.2 0 0 0 0 1 4
1693 2 10.4 -9.4 0 0 0 0 1 4
1743 2 10.4 -9.2 0 0 0 0 1 4
1694 2 10.6 -9.4 0 0 0 0 1 4
1744 2 10.6 -9.2 0 0 0 0 1 4
1695 2 10.8 -9.4 0 0 0 0 1 4
1745 2 10.8 -9.2 0 0 0 0 1 4
1751 2 2 -9 0 0 0 0 1 4
1801 2 2 -8.8 0 0 0 0 1 4
1752 2 2.2 -9 0 0 0 0 1 4
1753 2 2.4 -9 0 0 0 0 1 4
1802 2 2.2 -8.8 0 0 0 0 1 4
1803 2 2.4 -8.8 0 0 0 0 1 4
1754 2 2.6 -9 0 0 0 0 1 4
1755 2 2.8 -9 0 0 0 0 1 4
1804 2 2.6 -8.8 0 0 0 0 1 4
1805 2 2.8 -8.8 0 0 0 0 1 4
1756 2 3 -9 0 0 0 0 1 4
1757 2 3.2 -9 0 0 0 0 1 4
1806 2 3 -8.8 0 0 0 0 1 4
1807 2 3.2 -8.8 0 0 0 0 1 4
1758 2 3.4 -9 0 0 0 0 1 4
1759 2 3.6 -9 0 0 0 0 1 4
1808 2 3.4 -8.8 0 0 0 0 1 4
1809 2 3.6 -8.8 0 0 0 0 1 4
1760 2 3.8 -9 0 0 0 0 1 4
1810 2 3.8 -8.8 0 0 0 0 1 4
1761 2 4 -9 0 0 0 0 1 4
1811 2 4 -8.8 0 0 0 0 1 4
1762 2 4.2 -9 0 0 0 0 1 4
1812 2 4.2 -8.8 0 0 0 0 1 4
1763 2 4.4 -9 0 0 0 0 1 4
1764 2 4.6 -9 0 0 0 0 1 4
1813 2 4.4 -8.8 0 0 0 0 1 4
1814 2 4.6 -8.8 0 0 0 0 1 4
1765 2 4.8 -9 0 0 0 0 1 4
1766 2 5 -9 0 0 0 0 1 4
1815 2 4.8 -8.8 0 0 0 0 1 4
1816 2 5 -8.8 0 0 0 0 1 4
1767 2 5.2 -9 0 0 0 0 1 4
1768 2 5.4 -9 0 0 0 0 1 4
1817 2 5.2 -8.8 0 0 0 0 1 4
1818 2 5.4 -8.8 0 0 0 0 1 4
1769 2 5.6 -9 0 0 0 0 1 4
1770 2 5.8 -9 0 0 0 0 1 4
1819 2 5.6 -8.8 0 0 0 0 1 4
1820 2 5.8 -8.8 0 0 0 0 1 4
1771 2 6 -9 0 0 0 0 1 4
1772 2 6.2 -9 0 0 0 0 1 4
1821 2 6 -8.8 0 0 0 0 1 4
1822 2 6.2 -8.8 0 0 0 0 1 4
1773 2 6.4 -9 0 0 0 0 1 4
1774 2 6.6 -9 0 0 0 0 1 4
1823 2 6.4 -8.8 0 0 0 0 1 4
1824 2 6.6 -8.8 0 0 0 0 1 4
1775 2 6.8 -9 0 0 0 0 1 4
1776 2 7 -9 0 0 0 0 1 4
1825 2 6.8 -8.8 0 0 0 0 1 4
1826 2 7 -8.8 0 0 0 0 1 4
1777 2 7.2 -9 0 0 0 0 1 4
1827 2 7.2 -8.8 0 0 0 0 1 4
1778 2 7.4 -9 0 0 0 0 1 4
1779 2 7.6 -9 0 0 0 0 1 4
1828 2 7.4 -8.8 0 0 0 0 1 4
1829 2 7.6 -8.8 0 0 0 0 1 4
1780 2 7.8 -9 0 0 0 0 1 4
1781 2 8 -9 0 0 0 0 1 4
1830 2 7.8 -8.8 0 0 0 0 1 4
1831 2 8 -8.8 0 0 0 0 1 4
1782 2 8.2 -9 0 0 0 0 1 4
1783 2 8.4 -9 0 0 0 0 1 4
1832 2 8.2 -8.8 0 0 0 0 1 4
1833 2 8.4 -8.8 0 0 0 0 1 4
1784 2 8.6 -9 0 0 0 0 1 4
1785 2 8.8 -9 0 0 0 0 1 4
1834 2 8.6 -8.8 0 0 0 0 1 4
1835 2 8.8 -8.8 0 0 0 0 1 4
1786 2 9 -9 0 0 0 0 1 4
1787 2 9.2 -9 0 0 0 0 1 4
1836 2 9 -8.8 0 0 0 0 1 4
1837 2 9.2 -8.8 0 0 0 0 1 4
1788 2 9.4 -9 0 0 0 0 1 4
1789 2 9.6 -9 0 0 0 0 1 4
1838 2 9.4 -8.8 0 0 0 0 1 4
1839 2 9.6 -8.8 0 0 0 0 1 4
1790 2 9.8 -9 0 0 0 0 1 4
1840 2 9.8 -8.8 0 0 0 0 1 4
1791 2 10 -9 0 0 0 0 1 4
1841 2 10 -8.8 0 0 0 0 1 4
1792 2 10.2 -9 0 0 0 0 1 4
1842 2 10.2 -8.8 0 0 0 0 1 4
1793 2 10.4 -9 0 0 0 0 1 4
1843 2 10.4 -8.8 0 0 0 0 1 4
1794 2 10.6 -9 0 0 0 0 1 4
1844 2 10.6 -8.8 0 0 0 0 1 4
1795 2 10.8 -9 0 0 0 0 1 4
1845 2 10.8 -8.8 0 0 0 0 1 4
1851 2 2 -8.6 0 0 0 0 1 4
1901 2 2 -8.4 0 0 0 0 1 4
1852 2 2.2 -8.6 0 0 0 0 1 4
1853 2 2.4 -8.6 0 0 0 0 1 4
1902 2 2.2 -8.4 0 0 0 0 1 4
1903 2 2.4 -8.4 0 0 0 0 1 4
1854 2 2.6 -8.6 0 0 0 0 1 4
1855 2 2.8 -8.6 0 0 0 0 1 4
1904 2 2.6 -8.4 0 0 0 0 1 4
1905 2 2.8 -8.4 0 0 0 0 1 4
1856 2 3 -8.6 0 0 0 0 1 4
1857 2 3.2 -8.6 0 0 0 0 1 4
1906 2 3 -8.4 0 0 0 0 1 4
1907 2 3.2 -8.4 0 0 0 0 1 4
1858 2 3.4 -8.6 0 0 0 0 1 4
1859 2 3.6 -8.6 0 0 0 0 1 4
1908 2 3.4 -8.4 0 0 0 0 1 4
1909 2 3.6 -8.4 0 0 0 0 1 4
1860 2 3.8 -8.6 0 0 0 0 1 4
1910 2 3.8 -8.4 0 0 0 0 1 4
1861 2 4 -8.6 0 0 0 0 1 4
1911 2 4 -8.4 0 0 0 0 1 4
1862 2 4.2 -8.6 0 0 0 0 1 4
1912 2 4.2 -8.4 0 0 0 0 1 4
1863 2 4.4 -8.6 0 0 0 0 1 4
1864 2 4.6 -8.6 0 0 0 0 1 4
1913 2 4.4 -8.4 0 0 0 0 1 4
1914 2 4.6 -8.4 0 0 0 0 1 4
1865 2 4.8 -8.6 0 0 0 0 1 4
1866 2 5 -8.6 0 0 0 0 1 4
1915 2 4.8 -8.4 0 0 0 0 1 4
1916 2 5 -8.4 0 0 0 0 1 4
1867 2 5.2 -8.6 0 0 0 0 1 4
1868 2 5.4 -8.6 0 0 0 0 1 4
1917 2 5.2 -8.4 0 0 0 0 1 4
1918 2 5.4 -8.4 0 0 0 0 1 4
1869 2 5.6 -8.6 0 0 0 0 1 4
1870 2 5.8 -8.6 0 0 0 0 1 4
1919 2 5.6 -8.4 0 0 0 0 1 4
1920 2 5.8 -8.4 0 0 0 0 1 4
1871 2 6 -8.6 0 0 0 0 1 4
1872 2 6.2 -8.6 0 0 0 0 1 4
1921 2 6 -8.4 0 0 0 0 1 4
1922 2 6.2 -8.4 0 0 0 0 1 4
1873 2 6.4 -8.6 0 0 0 0 1 4
1874 2 6.6 -8.6 0 0 0 0 1 4
1923 2 6.4 -8.4 0 0 0 0 1 4
1924 2 6.6 -8.4 0 0 0 0 1 4
1875 2 6.8 -8.6 0 0 0 0 1 4
1876 2 7 -8.6 0 0 0 0 1 4
1925 2 6.8 -8.4 0 0 0 0 1 4
1926 2 7 -8.4 0 0 0 0 1 4
1877 2 7.2 -8.6 0 0 0 0 1 4
1927 2 7.2 -8.4 0 0 0 0 1 4
1878 2 7.4 -8.6 0 0 0 0 1 4
1879 2 7.6 -8.6 0 0 0 0 1 4
1928 2 7.4 -8.4 0 0 0 0 1 4
1929 2 7.6 -8.4 0 0 0 0 1 4
1880 2 7.8 -8.6 0 0 0 0 1 4
1881 2 8 -8.6 0 0 0 0 1 4
1930 2 7.8 -8.4 0 0 0 0 1 4
1931 2 8 -8.4 0 0 0 0 1 4
1882 2 8.2 -8.6 0 0 0 0 1 4
1883 2 8.4 -8.6 0 0 0 0 1 4
1932 2 8.2 -8.4 0 0 0 0 1 4
1933 2 8.4 -8.4 0 0 0 0 1 4
1884 2 8.6 -8.6 0 0 0 0 1 4
1885 2 8.8 -8.6 0 0 0 0 1 4
1934 2 8.6 -8.4 0 0 0 0 1 4
1935 2 8.8 -8.4 0 0 0 0 1 4
1886 2 9 -8.6 0 0 0 0 1 4
1887 2 9.2 -8.6 0 0 0 0 1 4
1936 2 9 -8.4 0 0 0 0 1 4
1937 2 9.2 -8.4 0 0 0 0 1 4
1888 2 9.4 -8.6 0 0 0 0 1 4
1889 2 9.6 -8.6 0 0 0 0 1 4
1938 2 9.4 -8.4 0 0 0 0 1 4
1939 2 9.6 -8.4 0 0 0 0 1 4
1890 2 9.8 -8.6 0 0 0 0 1 4
1940 2 9.8 -8.4 0 0 0 0 1 4
1891 2 10 -8.6 0 0 0 0 1 4
1941 2 10 -8.4 0 0 0 0 1 4
1892 2 10.2 -8.6 0 0 0 0 1 4
1942 2 10.2 -8.4 0 0 0 0 1 4
1893 2 10.4 -8.6 0 0 0 0 1 4
1943 2 10.4 -8.4 0 0 0 0 1 4
1894 2 10.6 -8.6 0 0 0 0 1 4
1944 2 10.6 -8.4 0 0 0 0 1 4
1895 2 10.8 -8.6 0 0 0 0 1 4
1945 2 10.8 -8.4 0 0 0 0 1 4
1951 2 2 -8.2 0 0 0 0 1 4
2001 2 2 -8 0 0 0 0 1 4
1952 2 2.2 -8.2 0 0 0 0 1 4
1953 2 2.4 -8.2 0 0 0 0 1 4
2002 2 2.2 -8 0 0 0 0 1 4
2003 2 2.4 -8 0 0 0 0 1 4
1954 2 2.6 -8.2 0 0 0 0 1 4
1955 2 2.8 -8.2 0 0 0 0 1 4
2004 2 2.6 -8 0 0 0 0 1 4
2005 2 2.8 -8 0 0 0 0 1 4
1956 2 3 -8.2 0 0 0 0 1 4
1957 2 3.2 -8.2 0 0 0 0 1 4
2006 2 3 -8 0 0 0 0 1 4
2007 2 3.2 -8 0 0 0 0 1 4
1958 2 3.4 -8.2 0 0 0 0 1 4
1959 2 3.6 -8.2 0 0 0 0 1 4
2008 2 3.4 -8 0 0 0 0 1 4
2009 2 3.6 -8 0 0 0 0 1 4
1960 2 3.8 -8.2 0 0 0 0 1 4
2010 2 3.8 -8 0 0 0 0 1 4
1961 2 4 -8.2 0 0 0 0 1 4
2011 2 4 -8 0 0 0 0 1 4
1962 2 4.2 -8.2 0 0 0 0 1 4
2012 2 4.2 -8 0 0 0 0 1 4
1963 2 4.4 -8.2 0 0 0 0 1 4
1964 2 4.6 -8.2 0 0 0 0 1 4
2013 2 4.4 -8 0 0 0 0 1 4
2014 2 4.6 -8 0 0 0 0 1 4
1965 2 4.8 -8.2 0 0 0 0 1 4
1966 2 5 -8.2 0 0 0 0 1 4
2015 2 4.8 -8 0 0 0 0 1 4
2016 2 5 -8 0 0 0 0 1 4
1967 2 5.2 -8.2 0 0 0 0 1 4
1968 2 5.4 -8.2 0 0 0 0 1 4
2017 2 5.2 -8 0 0 0 0 1 4
2018 2 5.4 -8 0 0 0 0 1 4
1969 2 5.6 -8.2 0 0 0 0 1 4
1970 2 5.8 -8.2 0 0 0 0 1 4
2019 2 5.6 -8 0 0 0 0 1 4
2020 2 5.8 -8 0 0 0 0 1 4
1971 2 6 -8.2 0 0 0 0 1 4
1972 2 6.2 -8.2 0 0 0 0 1 4
2021 2 6 -8 0 0 0 0 1 4
2022 2 6.2 -8 0 0 0 0 1 4
1973 2 6.4 -8.2 0 0 0 0 1 4
1974 2 6.6 -8.2 0 0 0 0 1 4
2023 2 6.4 -8 0 0 0 0 1 4
2024 2 6.6 -8 0 0 0 0 1 4
1975 2 6.8 -8.2 0 0 0 0 1 4
1976 2 7 -8.2 0 0 0 0 1 4
2025 2 6.8 -8 0 0 0 0 1 4
2026 2 7 -8 0 0 0 0 1 4
1977 2 7.2 -8.2 0 0 0 0 1 4
2027 2 7.2 -8 0 0 0 0 1 4
1978 2 7.4 -8.2 0 0 0 0 1 4
1979 2 7.6 -8.2 0 0 0 0 1 4
2028 2 7.4 -8 0 0 0 0 1 4
2029 2 7.6 -8 0 0 0 0 1 4
1980 2 7.8 -8.2 0 0 0 0 1 4
1981 2 8 -8.2 0 0 0 0 1 4
2030 2 7.8 -8 0 0 0 0 1 4
2031 2 8 -8 0 0 0 0 1 4
1982 2 8.2 -8.2 0 0 0 0 1 4
1983 2 8.4 -8.2 0 0 0 0 1 4
2032 2 8.2 -8 0 0 0 0 1 4
2033 2 8.4 -8 0 0 0 0 1 4
1984 2 8.6 -8.2 0 0 0 0 1 4
1985 2 8.8 -8.2 0 0 0 0 1 4
2034 2 8.6 -8 0 0 0 0 1 4
2035 2 8.8 -8 0 0 0 0 1 4
1986 2 9 -8.2 0 0 0 0 1 4
1987 2 9.2 -8.2 0 0 0 0 1 4
2036 2 9 -8 0 0 0 0 1 4
2037 2 9.2 -8 0 0 0 0 1 4
1988 2 9.4 -8.2 0 0 0 0 1 4
1989 2 9.6 -8.2 0 0 0 0 1 4
2038 2 9.4 -8 0 0 0 0 1 4
2039 2 9.6 -8 0 0 0 0 1 4
1990 2 9.8 -8.2 0 0 0 0 1 4
2040 2 9.8 -8 0 0 0 0 1 4
1991 2 10 -8.2 0 0 0 0 1 4
2041 2 10 -8 0 0 0 0 1 4
1992 2 10.2 -8.2 0 0 0 0 1 4
2042 2 10.2 -8 0 0 0 0 1 4
1993 2 10.4 -8.2 0 0 0 0 1 4
2043 2 10.4 -8 0 0 0 0 1 4
1994 2 10.6 -8.2 0 0 0 0 1 4
2044 2 10.6 -8 0 0 0 0 1 4
1995 2 10.8 -8.2 0 0 0 0 1 4
2045 2 10.8 -8 0 0 0 0 1 4
2051 2 2 -7.8 0 0 0 0 1 4
2101 2 2 -7.6 0 0 0 0 1 4
2151 2 2 -7.4 0 0 0 0 0.999325 4
2052 2 2.2 -7.8 0 0 0 0 1 4
2053 2 2.4 -7.8 0 0 0 0 1 4
2102 2 2.2 -7.6 0 0 0 0 1 4
2103 2 2.4 -7.6 0 0 0 0 1 4
2152 2 2.2 -7.4 0 0 0 0 1.00004 4
2153 2 2.4 -7.4 0 0 0 0 1.00004 4
2054 2 2.6 -7.8 0 0 0 0 1 4
2055 2 2.8 -7.8 0 0 0 0 1 4
2104 2 2.6 -7.6 0 0 0 0 1 4
2105 2 2.8 -7.6 0 0 0 0 1 4
2154 2 2.6 -7.4 0 0 0 0 0.999984 4
2155 2 2.8 -7.4 0 0 0 0 1.00001 4
2056 2 3 -7.8 0 0 0 0 1 4
2057 2 3.2 -7.8 0 0 0 0 1 4
2106 2 3 -7.6 0 0 0 0 1 4
2107 2 3.2 -7.6 0 0 0 0 1 4
2156 2 3 -7.4 0 0 0 0 1.00001 4
2157 2 3.2 -7.4 0 0 0 0 0.999981 4
2058 2 3.4 -7.8 0 0 0 0 1 4
2059 2 3.6 -7.8 0 0 0 0 1 4
2108 2 3.4 -7.6 0 0 0 0 1 4
2109 2 3.6 -7.6 0 0 0 0 1 4
2158 2 3.4 -7.4 0 0 0 0 1 4
2159 2 3.6 -7.4 0 0 0 0 1.00001 4
2060 2 3.8 -7.8 0 0 0 0 1 4
2110 2 3.8 -7.6 0 0 0 0 1 4
2160 2 3.8 -7.4 0 0 0 0 1.00006 4
2061 2 4 -7.8 0 0 0 0 1 4
2111 2 4 -7.6 0 0 0 0 1 4
2161 2 4 -7.4 0 0 0 0 1.01293 4
2062 2 4.2 -7.8 0 0 0 0 1 4
2112 2 4.2 -7.6 0 0 0 0 1 4
2162 2 4.2 -7.4 0 0 0 0 1.01338 4
2063 2 4.4 -7.8 0 0 0 0 1 4
2064 2 4.6 -7.8 0 0 0 0 1 4
2113 2 4.4 -7.6 0 0 0 0 1 4
2114 2 4.6 -7.6 0 0 0 0 1 4
2163 2 4.4 -7.4 0 0 0 0 1.00558 4
2164 2 4.6 -7.4 0 0 0 0 1.00389 4
2065 2 4.8 -7.8 0 0 0 0 1 4
2066 2 5 -7.8 0 0 0 0 1 4
2115 2 4.8 -7.6 0 0 0 0 1 4
2116 2 5 -7.6 0 0 0 0 1 4
2165 2 4.8 -7.4 0 0 0 0 1.00243 4
2166 2 5 -7.4 0 0 0 0 1.00242 4
2067 2 5.2 -7.8 0 0 0 0 1 4
2068 2 5.4 -7.8 0 0 0 0 1 4
2117 2 5.2 -7.6 0 0 0 0 1 4
2118 2 5.4 -7.6 0 0 0 0 1 4
2167 2 5.2 -7.4 0 0 0 0 1.00237 4
2168 2 5.4 -7.4 0 0 0 0 1.00194 4
2069 2 5.6 -7.8 0 0 0 0 1 4
2070 2 5.8 -7.8 0 0 0 0 1 4
2119 2 5.6 -7.6 0 0 0 0 1 4
2120 2 5.8 -7.6 0 0 0 0 1 4
2169 2 5.6 -7.4 0 0 0 0 1.0021 4
2170 2 5.8 -7.4 0 0 0 0 1.00209 4
2071 2 6 -7.8 0 0 0 0 1 4
2072 2 6.2 -7.8 0 0 0 0 1 4
2121 2 6 -7.6 0 0 0 0 1 4
2122 2 6.2 -7.6 0 0 0 0 1 4
2171 2 6 -7.4 0 0 0 0 1.00199 4
2172 2 6.2 -7.4 0 0 0 0 1.00178 4
2073 2 6.4 -7.8 0 0 0 0 1 4
2074 2 6.6 -7.8 0 0 0 0 1 4
2123 2 6.4 -7.6 0 0 0 0 1 4
2124 2 6.6 -7.6 0 0 0 0 1 4
2173 2 6.4 -7.4 0 0 0 0 1.00175 4
2174 2 6.6 -7.4 0 0 0 0 1.00171 4
2075 2 6.8 -7.8 0 0 0 0 1 4
2076 2 7 -7.8 0 0 0 0 1 4
2125 2 6.8 -7.6 0 0 0 0 1 4
2126 2 7 -7.6 0 0 0 0 1 4
2175 2 6.8 -7.4 0 0 0 0 1.00161 4
2176 2 7 -7.4 0 0 0 0 1.00164 4
2077 2 7.2 -7.8 0 0 0 0 1 4
2127 2 7.2 -7.6 0 0 0 0 1 4
2177 2 7.2 -7.4 0 0 0 0 1.00165 4
2078 2 7.4 -7.8 0 0 0 0 1 4
2079 2 7.6 -7.8 0 0 0 0 1 4
2128 2 7.4 -7.6 0 0 0 0 1 4
2129 2 7.6 -7.6 0 0 0 0 1 4
2178 2 7.4 -7.4 0 0 0 0 1.00155 4
2179 2 7.6 -7.4 0 0 0 0 1.0016 4
2080 2 7.8 -7.8 0 0 0 0 1 4
2081 2 8 -7.8 0 0 0 0 1 4
2130 2 7.8 -7.6 0 0 0 0 1 4
2131 2 8 -7.6 0 0 0 0 1 4
2180 2 7.8 -7.4 0 0 0 0 1.00162 4
2181 2 8 -7.4 0 0 0 0 1.00155 4
2082 2 8.2 -7.8 0 0 0 0 1 4
2083 2 8.4 -7.8 0 0 0 0 1 4
2132 2 8.2 -7.6 0 0 0 0 1 4
2133 2 8.4 -7.6 0 0 0 0 1 4
2182 2 8.2 -7.4 0 0 0 0 1.00157 4
2183 2 8.4 -7.4 0 0 0 0 1.00153 4
2084 2 8.6 -7.8 0 0 0 0 1 4
2085 2 8.8 -7.8 0 0 0 0 1 4
2134 2 8.6 -7.6 0 0 0 0 1 4
2135 2 8.8 -7.6 0 0 0 0 1 4
2184 2 8.6 -7.4 0 0 0 0 1.00144 4
2185 2 8.8 -7.4 0 0 0 0 1.0014 4
2086 2 9 -7.8 0 0 0 0 1 4
2087 2 9.2 -7.8 0 0 0 0 1 4
2136 2 9 -7.6 0 0 0 0 1 4
2137 2 9.2 -7.6 0 0 0 0 1 4
2186 2 9 -7.4 0 0 0 0 1.0015 4
2187 2 9.2 -7.4 0 0 0 0 1.00135 4
2088 2 9.4 -7.8 0 0 0 0 1 4
2089 2 9.6 -7.8 0 0 0 0 1 4
2138 2 9.4 -7.6 0 0 0 0 1 4
2139 2 9.6 -7.6 0 0 0 0 1 4
2188 2 9.4 -7.4 0 0 0 0 1.00141 4
2189 2 9.6 -7.4 0 0 0 0 1.00143 4
2090 2 9.8 -7.8 0 0 0 0 1 4
2140 2 9.8 -7.6 0 0 0 0 1 4
2190 2 9.8 -7.4 0 0 0 0 1.00142 4
2091 2 10 -7.8 0 0 0 0 1 4
2141 2 10 -7.6 0 0 0 0 1 4
2191 2 10 -7.4 0 0 0 0 1.00133 4
2092 2 10.2 -7.8 0 0 0 0 1 4
2142 2 10.2 -7.6 0 0 0 0 1 4
2192 2 10.2 -7.4 0 0 0 0 1.00127 4
2093 2 10.4 -7.8 0 0 0 0 1 4
2143 2 10.4 -7.6 0 0 0 0 1 4
2193 2 10.4 -7.4 0 0 0 0 1.00125 4
2094 2 10.6 -7.8 0 0 0 0 1 4
2144 2 10.6 -7.6 0 0 0 0 1 4
2194 2 10.6 -7.4 0 0 0 0 1.00117 4
2095 2 10.8 -7.8 0 0 0 0 1 4
2145 2 10.8 -7.6 0 0 0 0 1 4
2195 2 10.8 -7.4 0 0 0 0 1.00124 4
2201 2 2 -7.2 0 0 0 0 0.999507 4
2251 2 2 -7 0 0 0 0 0.999536 4
2202 2 2.2 -7.2 0 0 0 0 0.999873 4
2203 2 2.4 -7.2 0 0 0 0 1.00002 4
2252 2 2.2 -7 0 0 0 0 0.999854 4
2253 2 2.4 -7 0 0 0 0 1 4
2204 2 2.6 -7.2 0 0 0 0 0.999995 4
2205 2 2.8 -7.2 0 0 0 0 1 4
2254 2 2.6 -7 0 0 0 0 0.999997 4
2255 2 2.8 -7 0 0 0 0 1 4
2206 2 3 -7.2 0 0 0 0 1.00001 4
2207 2 3.2 -7.2 0 0 0 0 0.999991 4
2256 2 3 -7 0 0 0 0 1.00001 4
2257 2 3.2 -7 0 0 0 0 0.999995 4
2208 2 3.4 -7.2 0 0 0 0 0.999998 4
2209 2 3.6 -7.2 0 0 0 0 1.00002 4
2258 2 3.4 -7 0 0 0 0 0.999999 4
2259 2 3.6 -7 0 0 0 0 1.00004 4
2210 2 3.8 -7.2 0 0 0 0 1.00111 4
2260 2 3.8 -7 0 0 0 0 1.0014 4
2211 2 4 -7.2 0 0 0 0 1.00724 4
2261 2 4 -7 0 0 0 0 1.00647 4
2212 2 4.2 -7.2 0 0 0 0 1.01067 4
2262 2 4.2 -7 0 0 0 0 1.00989 4
2213 2 4.4 -7.2 0 0 0 0 1.00717 4
2214 2 4.6 -7.2 0 0 0 0 1.00415 4
2263 2 4.4 -7 0 0 0 0 1.00755 4
2264 2 4.6 -7 0 0 0 0 1.00456 4
2215 2 4.8 -7.2 0 0 0 0 1.00281 4
2216 2 5 -7.2 0 0 0 0 1.00263 4
2265 2 4.8 -7 0 0 0 0 1.00323 4
2266 2 5 -7 0 0 0 0 1.00292 4
2217 2 5.2 -7.2 0 0 0 0 1.0026 4
2218 2 5.4 -7.2 0 0 0 0 1.00226 4
2267 2 5.2 -7 0 0 0 0 1.00281 4
2268 2 5.4 -7 0 0 0 0 1.00252 4
2219 2 5.6 -7.2 0 0 0 0 1.00225 4
2220 2 5.8 -7.2 0 0 0 0 1.00225 4
2269 2 5.6 -7 0 0 0 0 1.00244 4
2270 2 5.8 -7 0 0 0 0 1.00238 4
2221 2 6 -7.2 0 0 0 0 1.00207 4
2222 2 6.2 -7.2 0 0 0 0 1.0019 4
2271 2 6 -7 0 0 0 0 1.00218 4
2272 2 6.2 -7 0 0 0 0 1.00204 4
2223 2 6.4 -7.2 0 0 0 0 1.00188 4
2224 2 6.6 -7.2 0 0 0 0 1.00182 4
2273 2 6.4 -7 0 0 0 0 1.00201 4
2274 2 6.6 -7 0 0 0 0 1.00194 4
2225 2 6.8 -7.2 0 0 0 0 1.00174 4
2226 2 7 -7.2 0 0 0 0 1.00173 4
2275 2 6.8 -7 0 0 0 0 1.00185 4
2276 2 7 -7 0 0 0 0 1.00182 4
2227 2 7.2 -7.2 0 0 0 0 1.00171 4
2277 2 7.2 -7 0 0 0 0 1.00179 4
2228 2 7.4 -7.2 0 0 0 0 1.00165 4
2229 2 7.6 -7.2 0 0 0 0 1.00166 4
2278 2 7.4 -7 0 0 0 0 1.00173 4
2279 2 7.6 -7 0 0 0 0 1.00172 4
2230 2 7.8 -7.2 0 0 0 0 1.00167 4
2231 2 8 -7.2 0 0 0 0 1.00162 4
2280 2 7.8 -7 0 0 0 0 1.00172 4
2281 2 8 -7 0 0 0 0 1.00168 4
2232 2 8.2 -7.2 0 0 0 0 1.00161 4
2233 2 8.4 -7.2 0 0 0 0 1.00158 4
2282 2 8.2 -7 0 0 0 0 1.00166 4
2283 2 8.4 -7 0 0 0 0 1.00163 4
2234 2 8.6 -7.2 0 0 0 0 1.00151 4
2235 2 8.8 -7.2 0 0 0 0 1.00149 4
2284 2 8.6 -7 0 0 0 0 1.00157 4
2285 2 8.8 -7 0 0 0 0 1.00156 4
2236 2 9 -7.2 0 0 0 0 1.00154 4
2237 2 9.2 -7.2 0 0 0 0 1.00145 4
2286 2 9 -7 0 0 0 0 1.00158 4
2287 2 9.2 -7 0 0 0 0 1.0015 4
2238 2 9.4 -7.2 0 0 0 0 1.00145 4
2239 2 9.6 -7.2 0 0 0 0 1.00147 4
2288 2 9.4 -7 0 0 0 0 1.00149 4
2289 2 9.6 -7 0 0 0 0 1.0015 4
2240 2 9.8 -7.2 0 0 0 0 1.00142 4
2290 2 9.8 -7 0 0 0 0 1.00145 4
2241 2 10 -7.2 0 0 0 0 1.00135 4
2291 2 10 -7 0 0 0 0 1.00139 4
2242 2 10.2 -7.2 0 0 0 0 1.0013 4
2292 2 10.2 -7 0 0 0 0 1.00134 4
2243 2 10.4 -7.2 0 0 0 0 1.00127 4
2293 2 10.4 -7 0 0 0 0 1.0013 4
2244 2 10.6 -7.2 0 0 0 0 1.00122 4
2294 2 10.6 -7 0 0 0 0 1.00125 4
2245 2 10.8 -7.2 0 0 0 0 1.00125 4
2295 2 10.8 -7 0 0 0 0 1.00127 4
15376 1 2.00013 -6.75913 0.02 0 0 0 0.999628 1
15377 1 2.21081 -6.77156 0.02 0 0 0 1.00002 1
15378 1 2.21604 -6.58618 0.02 0 0 0 0.999986 1
15379 1 2.41486 -6.73708 0.02 0 0 0 1.00001 1
15381 1 2.41631 -6.55603 0.02 0 0 0 0.999998 1
15380 1 2.60844 -6.73668 0.02 0 0 0 0.999985 1
15382 1 2.61381 -6.55449 0.02 0 0 0 1 1
15383 1 2.80058 -6.76418 0.02 0 0 0 1 1
15385 1 2.81057 -6.56259 0.02 0 0 0 1 1
15384 1 2.98786 -6.72592 0.02 0 0 0 1.00001 1
15386 1 3.00917 -6.54316 0.02 0 0 0 1 1
15387 1 3.18073 -6.74511 0.02 0 0 0 0.999989 1
15389 1 3.20232 -6.5541 0.02 0 0 0 1 1
15388 1 3.37612 -6.75213 0.02 0 0 0 1 1
15390 1 3.39325 -6.56552 0.02 0 0 0 1 1
15391 1 3.57823 -6.74839 0.02 0 0 0 1 1
15393 1 3.58242 -6.55383 0.02 0 0 0 1 1
15392 1 3.77655 -6.75526 0.02 0 0 0 1.00003 1
15394 1 3.77546 -6.57356 0.02 0 0 0 1.00002 1
15395 1 3.97137 -6.55521 0.02 0 0 0 1.00009 1
15396 1 3.98072 -6.7397 0.02 0 0 0 1.00011 1
15000 1 4.11787 -6.53068 0.0168609 0.00304628 -1.47024e-06 6.48685e-06 1.01007 0
14998 1 4.11801 -6.76419 0.0111356 0.000905455 1.06612e-05 -2.47103e-06 1.01364 0
14999 1 4.24688 -6.64374 0.0138028 0.00277536 4.82015e-06 1.85093e-06 1.01038 0
15001 1 4.28231 -6.4602 0.0166575 0.0041353 -1.19468e-05 1.2846e-05 1.00936 0
15004 1 4.44517 -6.46902 0.0162111 0.00370094 -4.35241e-06 3.36432e-06 1.00685 0
15002 1 4.37217 -6.71335 0.0102488 0.00135914 3.75302e-06 1.77924e-06 1.00803 0
15003 1 4.59206 -6.56018 0.0132149 0.00243598 -3.51055e-07 1.73114e-06 1.00503 0
15006 1 4.51941 -6.74263 0.00801363 0.000924312 2.49105e-06 1.03148e-06 1.00569 0
15007 1 4.79132 -6.54073 0.0120029 0.00197869 -1.18188e-06 9.45512e-07 1.00407 0
15010 1 4.68778 -6.72369 0.00740533 0.00078979 1.0944e-06 9.21383e-07 1.00432 0
15011 1 4.99045 -6.47067 0.0120165 0.00186378 -3.21379e-06 6.52018e-07 1.00382 0
15014 1 4.85724 -6.72505 0.00621181 0.0005208 -1.78739e-07 7.589e-07 1.0037 0
14651 1 5.19526 -6.52842 0.00962147 0.00114868 -3.36082e-06 3.53563e-07 1.00328 0
14653 1 5.01851 -6.62695 0.00816129 0.000933173 -1.86454e-06 6.62238e-07 1.00325 0
14659 1 5.09282 -6.76828 0.00422958 0.000228993 -9.87917e-07 3.59284e-07 1.00345 0
14664 1 5.27352 -6.67996 0.00569927 0.000454573 -2.27218e-06 3.58756e-07 1.00295 0
14660 1 5.52347 -6.57139 0.00732678 0.000670459 -2.71173e-06 -5.58722e-08 1.00273 0
14671 1 5.42499 -6.74509 0.0038552 0.000155006 -1.72471e-06 9.68875e-08 1.00278 0
14315 1 5.6931 -6.5952 0.00628499 0.000502243 -2.13286e-06 -1.94057e-07 1.00255 0
14328 1 5.65076 -6.77903 0.00294248 7.45148e-05 -1.34913e-06 -1.27311e-07 1.00271 0
14318 1 5.92339 -6.5791 0.00600167 0.000440736 -1.55273e-06 -3.07269e-07 1.00237 0
13991 1 5.87382 -6.74351 0.00315399 0.000105946 -9.27607e-07 -2.04735e-07 1.00254 0
13996 1 6.06023 -6.68288 0.00391005 0.000168835 -1.06388e-06 -2.156e-07 1.0022 0
14322 1 6.23753 -6.54112 0.00596311 0.000403271 -1.31569e-06 -2.93262e-07 1.00223 0
13638 1 6.21234 -6.73472 0.00282395 6.50342e-05 -6.76323e-07 -1.51327e-07 1.00222 0
13276 1 6.39073 -6.74887 0.00248025 2.33171e-05 -6.4937e-07 -9.73549e-08 1.00221 0
14002 1 6.45724 -6.58432 0.0048811 0.000266907 -9.97959e-07 -1.94801e-07 1.00206 0
13631 1 6.67244 -6.56199 0.00491185 0.00024282 -9.99959e-07 -1.70461e-07 1.00199 0
12923 1 6.58797 -6.73869 0.00246189 2.21337e-05 -6.01069e-07 -6.39887e-08 1.0021 0
12927 1 6.77877 -6.72056 0.00257146 2.06085e-05 -6.11107e-07 -5.08406e-08 1.002 0
13634 1 6.87469 -6.53312 0.0050522 0.000239245 -1.00364e-06 -1.56054e-07 1.00194 0
13642 1 7.06526 -6.54175 0.00472138 0.00020197 -9.23341e-07 -1.56546e-07 1.0019 0
12585 1 6.95602 -6.73092 0.00233996 9.32041e-06 -5.42486e-07 -5.39437e-08 1.00197 0
12592 1 7.13743 -6.718 0.00240076 1.30123e-05 -5.13166e-07 -6.51197e-08 1.00195 0
12248 1 7.30974 -6.70922 0.00240749 1.52157e-05 -4.91679e-07 -6.91807e-08 1.00188 0
11919 1 7.47883 -6.67856 0.0026903 3.11587e-05 -5.7878e-07 -6.21292e-08 1.00175 0
11538 1 7.62354 -6.75237 0.0018294 -1.77899e-06 -3.79481e-07 -7.32985e-08 1.00182 0
12934 1 7.70041 -6.56326 0.00392678 0.000134077 -7.41158e-07 -9.79925e-08 1.00174 0
12943 1 7.87662 -6.54999 0.00396327 0.000116262 -8.15049e-07 -5.91504e-08 1.00173 0
12936 1 8.05192 -6.5188 0.00421355 0.000109229 -9.00659e-07 1.11137e-08 1.0017 0
11195 1 7.82295 -6.73449 0.00193761 2.65488e-06 -4.44387e-07 -6.23485e-08 1.0018 0
10864 1 8.01953 -6.73715 0.00186301 -3.83762e-06 -5.18949e-07 -2.26685e-08 1.00175 0
12254 1 8.20572 -6.56972 0.00359289 8.32108e-05 -8.6418e-07 4.9739e-08 1.00166 0
10527 1 8.23069 -6.73896 0.00179874 -1.01531e-06 -4.85813e-07 3.7311e-08 1.00171 0
10538 1 8.428 -6.73652 0.00177971 -1.30262e-05 -6.12251e-07 1.05239e-07 1.00172 0
12589 1 8.54333 -6.54974 0.00366447 7.85611e-05 -8.89098e-07 2.28543e-07 1.00162 0
11207 1 8.71095 -6.5613 0.00348024 6.42404e-05 -8.32316e-07 3.39911e-07 1.00159 0
10178 1 8.6399 -6.74039 0.00168628 -1.53815e-05 -6.08798e-07 1.83557e-07 1.00163 0
3116 1 8.87712 -6.78793 0.00131867 -3.81624e-05 -5.37753e-07 2.40324e-07 1.00165 0
10185 1 8.9488 -6.62366 0.00275541 4.24028e-05 -6.2929e-07 3.99815e-07 1.00157 0
3119 1 9.11835 -6.71026 0.00188756 3.93566e-08 -5.22382e-07 3.49302e-07 1.00155 0
3123 1 9.31262 -6.76435 0.00141912 -2.53676e-05 -4.11049e-07 3.25766e-07 1.00155 0
11916 1 9.25866 -6.5599 0.0033207 5.65259e-05 -3.81149e-07 4.61987e-07 1.00151 0
3109 1 9.49755 -6.62289 0.00264656 3.55633e-05 -1.33501e-07 4.24969e-07 1.00148 0
3113 1 9.73102 -6.5848 0.00296478 3.44765e-05 2.64286e-07 4.10519e-07 1.00145 0
3124 1 9.58144 -6.75984 0.00140729 -1.5167e-05 -1.50301e-07 3.01864e-07 1.00154 0
3125 1 9.80395 -6.72414 0.00166348 -1.09273e-05 1.10187e-07 2.90471e-07 1.00147 0
3117 1 10.0233 -6.56659 0.00307448 2.24838e-05 7.76128e-07 3.38825e-07 1.00139 0
3126 1 9.98875 -6.74162 0.00149978 -1.88426e-05 2.46232e-07 2.08463e-07 1.00143 0
3121 1 10.2553 -6.55797 0.00311523 1.32852e-05 1.18271e-06 2.48804e-07 1.00134 0
3127 1 10.1827 -6.73075 0.00157296 -3.11417e-05 4.70499e-07 1.7373e-07 1.00141 0
10521 1 10.4651 -6.54101 0.00323646 4.76286e-07 1.54261e-06 1.43083e-07 1.00129 0
3128 1 10.3782 -6.73948 0.00148203 -3.31015e-05 6.39524e-07 1.19164e-07 1.00137 0
3129 1 10.5753 -6.66899 0.00207459 -1.80348e-05 1.12989e-06 7.62995e-08 1.00126 0
3131 1 10.7133 -6.76259 0.00131252 -2.20877e-05 8.44881e-07 2.81335e-08 1.00129 0
3105 1 10.8772 -6.56084 0.00300755 8.8309e-06 1.93034e-06 -5.8193e-08 1.00125 0
3130 1 10.925 -6.7296 0.00152623 -1.64826e-05 1.13788e-06 -4.54913e-08 1.00129 0
15397 1 2.17558 -6.41015 0.02 0 0 0 0.999999 1
15398 1 2.20604 -6.22782 0.02 0 0 0 1 1
15399 1 2.39562 -6.38041 0.02 0 0 0 1 1
15401 1 2.41537 -6.20093 0.02 0 0 0 1 1
15400 1 2.62724 -6.37493 0.02 0 0 0 1 1
15402 1 2.6207 -6.19124 0.02 0 0 0 1 1
15403 1 2.8366 -6.37295 0.02 0 0 0 1 1
15405 1 2.83218 -6.18503 0.02 0 0 0 1 1
15404 1 3.03582 -6.35256 0.02 0 0 0 1 1
15406 1 3.03515 -6.15959 0.02 0 0 0 1 1
15407 1 3.22902 -6.35927 0.02 0 0 0 1 1
15409 1 3.23289 -6.16214 0.02 0 0 0 1 1
15408 1 3.4186 -6.37098 0.02 0 0 0 1 1
15410 1 3.42421 -6.16723 0.02 0 0 0 1 1
15411 1 3.60986 -6.35953 0.02 0 0 0 1 1
15413 1 3.61662 -6.16965 0.02 0 0 0 1 1
15020 1 4.00052 -6.16586 0.0184479 0.000887724 -0.00042979 0.00031754 1.00076 0
15412 1 3.79963 -6.38627 0.02 0 0 0 1.00002 1
15414 1 3.81093 -6.1843 0.02 0 0 0 1.00003 1
15415 1 3.9916 -6.36285 0.02 0 0 0 1.00006 1
15016 1 4.14873 -6.31565 0.0174912 0.00329624 -0.000107697 8.82434e-05 1.00792 0
15017 1 4.3265 -6.27218 0.0177884 0.00478516 -4.50924e-05 1.71643e-05 1.00712 0
15018 1 4.16939 -6.11774 0.0177038 0.00332707 -0.000128174 1.15933e-05 1.00596 0
15019 1 4.34951 -6.07581 0.0183492 0.00487283 -8.24185e-06 1.00571e-06 1.00544 0
15021 1 4.49581 -6.22529 0.0180691 0.00488086 -8.07984e-06 -2.70542e-07 1.00535 0
15023 1 4.53606 -6.02779 0.0187057 0.00523002 -2.49581e-06 -3.86116e-06 1.00453 0
15005 1 4.60652 -6.36965 0.0164746 0.00384357 -4.21158e-06 9.53515e-07 1.0051 0
15008 1 4.77553 -6.34906 0.015575 0.00336522 -3.29177e-06 2.2235e-07 1.0045 0
15022 1 4.6792 -6.16677 0.017792 0.00469871 -3.28035e-06 -1.32205e-06 1.00452 0
15025 1 4.85864 -6.13143 0.0172379 0.0043122 -3.26216e-06 -1.40936e-06 1.00419 0
15009 1 4.93989 -6.30775 0.0150133 0.00306449 -3.95858e-06 -4.80337e-08 1.00417 0
15012 1 5.10197 -6.24434 0.0148442 0.00294965 -4.73956e-06 -3.4471e-07 1.00384 0
15026 1 5.02679 -6.06734 0.0169659 0.00410351 -4.05568e-06 -1.5824e-06 1.00388 0
15029 1 5.20395 -6.05432 0.0162856 0.00366305 -4.88502e-06 -1.35019e-06 1.00359 0
15013 1 5.23234 -6.35335 0.0125873 0.00200555 -4.559e-06 -1.19888e-07 1.00352 0
15015 1 5.32877 -6.18788 0.0143227 0.00267674 -4.96911e-06 -6.98416e-07 1.00344 0
14654 1 5.38484 -6.47149 0.00982144 0.0011902 -3.74841e-06 3.99431e-08 1.00309 0
14652 1 5.47496 -6.25847 0.0127182 0.00201797 -4.52174e-06 -5.06394e-07 1.00319 0
14655 1 5.58721 -6.38324 0.0104137 0.00130891 -3.57099e-06 -3.83011e-07 1.00297 0
14656 1 5.64715 -6.14558 0.0133475 0.00223257 -4.05709e-06 -8.35621e-07 1.00301 0
14657 1 5.82284 -6.15033 0.0125922 0.0019196 -3.30879e-06 -7.74645e-07 1.00283 0
14663 1 5.74759 -6.334 0.0105151 0.00131838 -3.18683e-06 -5.36993e-07 1.00285 0
14658 1 5.99235 -6.05898 0.0129904 0.0020148 -2.78237e-06 -8.00508e-07 1.00268 0
14667 1 5.86196 -6.43987 0.00852915 0.000838693 -2.41576e-06 -4.54665e-07 1.00265 0
14661 1 5.98594 -6.25958 0.0106662 0.00131658 -2.49546e-06 -6.32624e-07 1.00266 0