ITEM: TIMESTEP
14000
ITEM: NUMBER OF ATOMS
10560
ITEM: BOX BOUNDS ff ff pp
0.0000000000000000e+00 2.2000000000000000e+01
-1.0000000000000000e+01 1.0000000000000000e+01
-2.0000000000000000e-02 2.0000000000000000e-02
ITEM: ATOMS id type x y vx vy fx fy c_den c_phase
1501 2 2 -10 0 0 0 0 1 5
1535 2 2 -9.8 0 0 0 0 1 5
1569 2 2 -9.6 0 0 0 0 1 5
1502 2 2.2 -10 0 0 0 0 1 5
1503 2 2.4 -10 0 0 0 0 1 5
1536 2 2.2 -9.8 0 0 0 0 1 5
1537 2 2.4 -9.8 0 0 0 0 1 5
1570 2 2.2 -9.6 0 0 0 0 1 5
1571 2 2.4 -9.6 0 0 0 0 1 5
1504 2 2.6 -10 0 0 0 0 1 5
1505 2 2.8 -10 0 0 0 0 1 5
1538 2 2.6 -9.8 0 0 0 0 1 5
1539 2 2.8 -9.8 0 0 0 0 1 5
1572 2 2.6 -9.6 0 0 0 0 1 5
1573 2 2.8 -9.6 0 0 0 0 1 5
1506 2 3 -10 0 0 0 0 1 5
1540 2 3 -9.8 0 0 0 0 1 5
1574 2 3 -9.6 0 0 0 0 1 5
1507 2 3.2 -10 0 0 0 0 1 5
1541 2 3.2 -9.8 0 0 0 0 1 5
1575 2 3.2 -9.6 0 0 0 0 1 5
1508 2 3.4 -10 0 0 0 0 1 5
1542 2 3.4 -9.8 0 0 0 0 1 5
1576 2 3.4 -9.6 0 0 0 0 1 5
1509 2 3.6 -10 0 0 0 0 1 5
1543 2 3.6 -9.8 0 0 0 0 1 5
1577 2 3.6 -9.6 0 0 0 0 1 5
1510 2 3.8 -10 0 0 0 0 1 5
1544 2 3.8 -9.8 0 0 0 0 1 5
1578 2 3.8 -9.6 0 0 0 0 1 5
1511 2 4 -10 0 0 0 0 1 5
1512 2 4.2 -10 0 0 0 0 1 5
1545 2 4 -9.8 0 0 0 0 1 5
1546 2 4.2 -9.8 0 0 0 0 1 5
1579 2 4 -9.6 0 0 0 0 1 5
1580 2 4.2 -9.6 0 0 0 0 1 5
1513 2 4.4 -10 0 0 0 0 1 5
1514 2 4.6 -10 0 0 0 0 1 5
1547 2 4.4 -9.8 0 0 0 0 1 5
1548 2 4.6 -9.8 0 0 0 0 1 5
1581 2 4.4 -9.6 0 0 0 0 1 5
1582 2 4.6 -9.6 0 0 0 0 1 5
1515 2 4.8 -10 0 0 0 0 1 5
1516 2 5 -10 0 0 0 0 1 5
1549 2 4.8 -9.8 0 0 0 0 1 5
1550 2 5 -9.8 0 0 0 0 1 5
1583 2 4.8 -9.6 0 0 0 0 1 5
1584 2 5 -9.6 0 0 0 0 1 5
1517 2 5.2 -10 0 0 0 0 1 5
1518 2 5.4 -10 0 0 0 0 1 5
1551 2 5.2 -9.8 0 0 0 0 1 5
1552 2 5.4 -9.8 0 0 0 0 1 5
1585 2 5.2 -9.6 0 0 0 0 1 5
1586 2 5.4 -9.6 0 0 0 0 1 5
1519 2 5.6 -10 0 0 0 0 1 5
1553 2 5.6 -9.8 0 0 0 0 1 5
1587 2 5.6 -9.6 0 0 0 0 1 5
1520 2 5.8 -10 0 0 0 0 1 5
1554 2 5.8 -9.8 0 0 0 0 1 5
1588 2 5.8 -9.6 0 0 0 0 1 5
1521 2 6 -10 0 0 0 0 1 5
1555 2 6 -9.8 0 0 0 0 1 5
1589 2 6 -9.6 0 0 0 0 1 5
1522 2 6.2 -10 0 0 0 0 1 5
1523 2 6.4 -10 0 0 0 0 1 5
1556 2 6.2 -9.8 0 0 0 0 1 5
1557 2 6.4 -9.8 0 0 0 0 1 5
1590 2 6.2 -9.6 0 0 0 0 1 5
1591 2 6.4 -9.6 0 0 0 0 1 5
1524 2 6.6 -10 0 0 0 0 1 5
1525 2 6.8 -10 0 0 0 0 1 5
1558 2 6.6 -9.8 0 0 0 0 1 5
1559 2 6.8 -9.8 0 0 0 0 1 5
1592 2 6.6 -9.6 0 0 0 0 1 5
1593 2 6.8 -9.6 0 0 0 0 1 5
1526 2 7 -10 0 0 0 0 1 5
1527 2 7.2 -10 0 0 0 0 1 5
1560 2 7 -9.8 0 0 0 0 1 5
1561 2 7.2 -9.8 0 0 0 0 1 5
1594 2 7 -9.6 0 0 0 0 1 5
1595 2 7.2 -9.6 0 0 0 0 1 5
1603 2 2 -9.4 0 0 0 0 1 5
1637 2 2 -9.2 0 0 0 0 1 5
1604 2 2.2 -9.4 0 0 0 0 1 5
1605 2 2.4 -9.4 0 0 0 0 1 5
1638 2 2.2 -9.2 0 0 0 0 1 5
1639 2 2.4 -9.2 0 0 0 0 1 5
1606 2 2.6 -9.4 0 0 0 0 1 5
1607 2 2.8 -9.4 0 0 0 0 1 5
1640 2 2.6 -9.2 0 0 0 0 1 5
1641 2 2.8 -9.2 0 0 0 0 1 5
1608 2 3 -9.4 0 0 0 0 1 5
1642 2 3 -9.2 0 0 0 0 1 5
1609 2 3.2 -9.4 0 0 0 0 1 5
1643 2 3.2 -9.2 0 0 0 0 1 5
1610 2 3.4 -9.4 0 0 0 0 1 5
1644 2 3.4 -9.2 0 0 0 0 1 5
1611 2 3.6 -9.4 0 0 0 0 1 5
1645 2 3.6 -9.2 0 0 0 0 1 5
1612 2 3.8 -9.4 0 0 0 0 1 5
1646 2 3.8 -9.2 0 0 0 0 1 5
1613 2 4 -9.4 0 0 0 0 1 5
1614 2 4.2 -9.4 0 0 0 0 1 5
1647 2 4 -9.2 0 0 0 0 1 5
1648 2 4.2 -9.2 0 0 0 0 1 5
1615 2 4.4 -9.4 0 0 0 0 1 5
1616 2 4.6 -9.4 0 0 0 0 1 5
1649 2 4.4 -9.2 0 0 0 0 1 5
1650 2 4.6 -9.2 0 0 0 0 1 5
1617 2 4.8 -9.4 0 0 0 0 1 5
1618 2 5 -9.4 0 0 0 0 1 5
1651 2 4.8 -9.2 0 0 0 0 1 5
1652 2 5 -9.2 0 0 0 0 1 5
1619 2 5.2 -9.4 0 0 0 0 1 5
1620 2 5.4 -9.4 0 0 0 0 1 5
1653 2 5.2 -9.2 0 0 0 0 1 5
1654 2 5.4 -9.2 0 0 0 0 1 5
1621 2 5.6 -9.4 0 0 0 0 1 5
1655 2 5.6 -9.2 0 0 0 0 1 5
1622 2 5.8 -9.4 0 0 0 0 1 5
1656 2 5.8 -9.2 0 0 0 0 1 5
1623 2 6 -9.4 0 0 0 0 1 5
1657 2 6 -9.2 0 0 0 0 1 5
1624 2 6.2 -9.4 0 0 0 0 1 5
1625 2 6.4 -9.4 0 0 0 0 1 5
1658 2 6.2 -9.2 0 0 0 0 1 5
1659 2 6.4 -9.2 0 0 0 0 1 5
1626 2 6.6 -9.4 0 0 0 0 1 5
1627 2 6.8 -9.4 0 0 0 0 1 5
1660 2 6.6 -9.2 0 0 0 0 1 5
1661 2 6.8 -9.2 0 0 0 0 1 5
1628 2 7 -9.4 0 0 0 0 1 5
1629 2 7.2 -9.4 0 0 0 0 1 5
1662 2 7 -9.2 0 0 0 0 1 5
1663 2 7.2 -9.2 0 0 0 0 1 5
1671 2 2 -9 0 0 0 0 1 5
1705 2 2 -8.8 0 0 0 0 1 5
1672 2 2.2 -9 0 0 0 0 1 5
1673 2 2.4 -9 0 0 0 0 1 5
1706 2 2.2 -8.8 0 0 0 0 1 5
1707 2 2.4 -8.8 0 0 0 0 1 5
1674 2 2.6 -9 0 0 0 0 1 5
1675 2 2.8 -9 0 0 0 0 1 5
1708 2 2.6 -8.8 0 0 0 0 1 5
1709 2 2.8 -8.8 0 0 0 0 1 5
1676 2 3 -9 0 0 0 0 1 5
1710 2 3 -8.8 0 0 0 0 1 5
1677 2 3.2 -9 0 0 0 0 1 5
1711 2 3.2 -8.8 0 0 0 0 1 5
1678 2 3.4 -9 0 0 0 0 1 5
1712 2 3.4 -8.8 0 0 0 0 1 5
1679 2 3.6 -9 0 0 0 0 1 5
1713 2 3.6 -8.8 0 0 0 0 1 5
1680 2 3.8 -9 0 0 0 0 1 5
1714 2 3.8 -8.8 0 0 0 0 1 5
1681 2 4 -9 0 0 0 0 1 5
1682 2 4.2 -9 0 0 0 0 1 5
1715 2 4 -8.8 0 0 0 0 1 5
1716 2 4.2 -8.8 0 0 0 0 1 5
1683 2 4.4 -9 0 0 0 0 1 5
1684 2 4.6 -9 0 0 0 0 1 5
1717 2 4.4 -8.8 0 0 0 0 1 5
1718 2 4.6 -8.8 0 0 0 0 1 5
1685 2 4.8 -9 0 0 0 0 1 5
1686 2 5 -9 0 0 0 0 1 5
1719 2 4.8 -8.8 0 0 0 0 1 5
1720 2 5 -8.8 0 0 0 0 1 5
1687 2 5.2 -9 0 0 0 0 1 5
1688 2 5.4 -9 0 0 0 0 1 5
1721 2 5.2 -8.8 0 0 0 0 1 5
1722 2 5.4 -8.8 0 0 0 0 1 5
1689 2 5.6 -9 0 0 0 0 1 5
1723 2 5.6 -8.8 0 0 0 0 1 5
1690 2 5.8 -9 0 0 0 0 1 5
1724 2 5.8 -8.8 0 0 0 0 1 5
1691 2 6 -9 0 0 0 0 1 5
1725 2 6 -8.8 0 0 0 0 1 5
1692 2 6.2 -9 0 0 0 0 1 5
1693 2 6.4 -9 0 0 0 0 1 5
1726 2 6.2 -8.8 0 0 0 0 1 5
1727 2 6.4 -8.8 0 0 0 0 1 5
1694 2 6.6 -9 0 0 0 0 1 5
1695 2 6.8 -9 0 0 0 0 1 5
1728 2 6.6 -8.8 0 0 0 0 1 5
1729 2 6.8 -8.8 0 0 0 0 1 5
1696 2 7 -9 0 0 0 0 1 5
1697 2 7.2 -9 0 0 0 0 1 5
1730 2 7 -8.8 0 0 0 0 1 5
1731 2 7.2 -8.8 0 0 0 0 1 5
1739 2 2 -8.6 0 0 0 0 1 5
1773 2 2 -8.4 0 0 0 0 1 5
1740 2 2.2 -8.6 0 0 0 0 1 5
1741 2 2.4 -8.6 0 0 0 0 1 5
1774 2 2.2 -8.4 0 0 0 0 1 5
1775 2 2.4 -8.4 0 0 0 0 1 5
1742 2 2.6 -8.6 0 0 0 0 1 5
1743 2 2.8 -8.6 0 0 0 0 1 5
1776 2 2.6 -8.4 0 0 0 0 1 5
1777 2 2.8 -8.4 0 0 0 0 1 5
1744 2 3 -8.6 0 0 0 0 1 5
1778 2 3 -8.4 0 0 0 0 1 5
1745 2 3.2 -8.6 0 0 0 0 1 5
1779 2 3.2 -8.4 0 0 0 0 1 5
1746 2 3.4 -8.6 0 0 0 0 1 5
1780 2 3.4 -8.4 0 0 0 0 1 5
1747 2 3.6 -8.6 0 0 0 0 1 5
1781 2 3.6 -8.4 0 0 0 0 1 5
1748 2 3.8 -8.6 0 0 0 0 1 5
1782 2 3.8 -8.4 0 0 0 0 1 5
1749 2 4 -8.6 0 0 0 0 1 5
1750 2 4.2 -8.6 0 0 0 0 1 5
1783 2 4 -8.4 0 0 0 0 1 5
1784 2 4.2 -8.4 0 0 0 0 1 5
1751 2 4.4 -8.6 0 0 0 0 1 5
1752 2 4.6 -8.6 0 0 0 0 1 5
1785 2 4.4 -8.4 0 0 0 0 1 5
1786 2 4.6 -8.4 0 0 0 0 1 5
1753 2 4.8 -8.6 0 0 0 0 1 5
1754 2 5 -8.6 0 0 0 0 1 5
1787 2 4.8 -8.4 0 0 0 0 1 5
1788 2 5 -8.4 0 0 0 0 1 5
1755 2 5.2 -8.6 0 0 0 0 1 5
1756 2 5.4 -8.6 0 0 0 0 1 5
1789 2 5.2 -8.4 0 0 0 0 1 5
1790 2 5.4 -8.4 0 0 0 0 1 5
1757 2 5.6 -8.6 0 0 0 0 1 5
1791 2 5.6 -8.4 0 0 0 0 1 5
1758 2 5.8 -8.6 0 0 0 0 1 5
1792 2 5.8 -8.4 0 0 0 0 1 5
1759 2 6 -8.6 0 0 0 0 1 5
1793 2 6 -8.4 0 0 0 0 1 5
1760 2 6.2 -8.6 0 0 0 0 1 5
1761 2 6.4 -8.6 0 0 0 0 1 5
1794 2 6.2 -8.4 0 0 0 0 1 5
1795 2 6.4 -8.4 0 0 0 0 1 5
1762 2 6.6 -8.6 0 0 0 0 1 5
1763 2 6.8 -8.6 0 0 0 0 1 5
1796 2 6.6 -8.4 0 0 0 0 1 5
1797 2 6.8 -8.4 0 0 0 0 1 5
1764 2 7 -8.6 0 0 0 0 1 5
1765 2 7.2 -8.6 0 0 0 0 1 5
1798 2 7 -8.4 0 0 0 0 1 5
1799 2 7.2 -8.4 0 0 0 0 1 5
1807 2 2 -8.2 0 0 0 0 1 5
1841 2 2 -8 0 0 0 0 1 5
1808 2 2.2 -8.2 0 0 0 0 1 5
1809 2 2.4 -8.2 0 0 0 0 1 5
1842 2 2.2 -8 0 0 0 0 1 5
1843 2 2.4 -8 0 0 0 0 1 5
1810 2 2.6 -8.2 0 0 0 0 1 5
1811 2 2.8 -8.2 0 0 0 0 1 5
1844 2 2.6 -8 0 0 0 0 1 5
1845 2 2.8 -8 0 0 0 0 1 5
1812 2 3 -8.2 0 0 0 0 1 5
1846 2 3 -8 0 0 0 0 1 5
1813 2 3.2 -8.2 0 0 0 0 1 5
1847 2 3.2 -8 0 0 0 0 1 5
1814 2 3.4 -8.2 0 0 0 0 1 5
1848 2 3.4 -8 0 0 0 0 1 5
1815 2 3.6 -8.2 0 0 0 0 1 5
1849 2 3.6 -8 0 0 0 0 1 5
1816 2 3.8 -8.2 0 0 0 0 1 5
1850 2 3.8 -8 0 0 0 0 1 5
1817 2 4 -8.2 0 0 0 0 1 5
1818 2 4.2 -8.2 0 0 0 0 1 5
1851 2 4 -8 0 0 0 0 1 5
1852 2 4.2 -8 0 0 0 0 1 5
1819 2 4.4 -8.2 0 0 0 0 1 5
1820 2 4.6 -8.2 0 0 0 0 1 5
1853 2 4.4 -8 0 0 0 0 1 5
1854 2 4.6 -8 0 0 0 0 1 5
1821 2 4.8 -8.2 0 0 0 0 1 5
1822 2 5 -8.2 0 0 0 0 1 5
1855 2 4.8 -8 0 0 0 0 1 5
1856 2 5 -8 0 0 0 0 1 5
1823 2 5.2 -8.2 0 0 0 0 1 5
1824 2 5.4 -8.2 0 0 0 0 1 5
1857 2 5.2 -8 0 0 0 0 1 5
1858 2 5.4 -8 0 0 0 0 1 5
1825 2 5.6 -8.2 0 0 0 0 1 5
1859 2 5.6 -8 0 0 0 0 1 5
1826 2 5.8 -8.2 0 0 0 0 1 5
1860 2 5.8 -8 0 0 0 0 1 5
1827 2 6 -8.2 0 0 0 0 1 5
1861 2 6 -8 0 0 0 0 1 5
1828 2 6.2 -8.2 0 0 0 0 1 5
1829 2 6.4 -8.2 0 0 0 0 1 5
1862 2 6.2 -8 0 0 0 0 1 5
1863 2 6.4 -8 0 0 0 0 1 5
1830 2 6.6 -8.2 0 0 0 0 1 5
1831 2 6.8 -8.2 0 0 0 0 1 5
1864 2 6.6 -8 0 0 0 0 1 5
1865 2 6.8 -8 0 0 0 0 1 5
1832 2 7 -8.2 0 0 0 0 1 5
1833 2 7.2 -8.2 0 0 0 0 1 5
1866 2 7 -8 0 0 0 0 1 5
1867 2 7.2 -8 0 0 0 0 1 5
1875 2 2 -7.8 0 0 0 0 1 5
1909 2 2 -7.6 0 0 0 0 1 5
1943 2 2 -7.4 0 0 0 0 1.00967 5
1876 2 2.2 -7.8 0 0 0 0 1 5
1877 2 2.4 -7.8 0 0 0 0 1 5
1910 2 2.2 -7.6 0 0 0 0 1 5
1911 2 2.4 -7.6 0 0 0 0 1 5
1944 2 2.2 -7.4 0 0 0 0 0.999903 5
1945 2 2.4 -7.4 0 0 0 0 0.998232 5
1878 2 2.6 -7.8 0 0 0 0 1 5
1879 2 2.8 -7.8 0 0 0 0 1 5
1912 2 2.6 -7.6 0 0 0 0 1 5
1913 2 2.8 -7.6 0 0 0 0 1 5
1946 2 2.6 -7.4 0 0 0 0 0.998764 5
1947 2 2.8 -7.4 0 0 0 0 1.00087 5
1880 2 3 -7.8 0 0 0 0 1 5
1914 2 3 -7.6 0 0 0 0 1 5
1948 2 3 -7.4 0 0 0 0 0.999156 5
1881 2 3.2 -7.8 0 0 0 0 1 5
1915 2 3.2 -7.6 0 0 0 0 1 5
1949 2 3.2 -7.4 0 0 0 0 0.999553 5
1882 2 3.4 -7.8 0 0 0 0 1 5
1916 2 3.4 -7.6 0 0 0 0 1 5
1950 2 3.4 -7.4 0 0 0 0 1.00084 5
1883 2 3.6 -7.8 0 0 0 0 1 5
1917 2 3.6 -7.6 0 0 0 0 1 5
1951 2 3.6 -7.4 0 0 0 0 0.999066 5
1884 2 3.8 -7.8 0 0 0 0 1 5
1918 2 3.8 -7.6 0 0 0 0 1 5
1952 2 3.8 -7.4 0 0 0 0 1.00429 5
1885 2 4 -7.8 0 0 0 0 1 5
1886 2 4.2 -7.8 0 0 0 0 1 5
1919 2 4 -7.6 0 0 0 0 1 5
1920 2 4.2 -7.6 0 0 0 0 1 5
1953 2 4 -7.4 0 0 0 0 1.01999 5
1954 2 4.2 -7.4 0 0 0 0 1.02077 5
1887 2 4.4 -7.8 0 0 0 0 1 5
1888 2 4.6 -7.8 0 0 0 0 1 5
1921 2 4.4 -7.6 0 0 0 0 1 5
1922 2 4.6 -7.6 0 0 0 0 1 5
1955 2 4.4 -7.4 0 0 0 0 1.01759 5
1956 2 4.6 -7.4 0 0 0 0 1.01627 5
1889 2 4.8 -7.8 0 0 0 0 1 5
1890 2 5 -7.8 0 0 0 0 1 5
1923 2 4.8 -7.6 0 0 0 0 1 5
1924 2 5 -7.6 0 0 0 0 1 5
1957 2 4.8 -7.4 0 0 0 0 1.0154 5
1958 2 5 -7.4 0 0 0 0 1.0148 5
1891 2 5.2 -7.8 0 0 0 0 1 5
1892 2 5.4 -7.8 0 0 0 0 1 5
1925 2 5.2 -7.6 0 0 0 0 1 5
1926 2 5.4 -7.6 0 0 0 0 1 5
1959 2 5.2 -7.4 0 0 0 0 1.01482 5
1960 2 5.4 -7.4 0 0 0 0 1.01478 5
1893 2 5.6 -7.8 0 0 0 0 1 5
1927 2 5.6 -7.6 0 0 0 0 1 5
1961 2 5.6 -7.4 0 0 0 0 1.01481 5
1894 2 5.8 -7.8 0 0 0 0 1 5
1928 2 5.8 -7.6 0 0 0 0 1 5
1962 2 5.8 -7.4 0 0 0 0 1.01498 5
1895 2 6 -7.8 0 0 0 0 1 5
1929 2 6 -7.6 0 0 0 0 1 5
1963 2 6 -7.4 0 0 0 0 1.01482 5
1896 2 6.2 -7.8 0 0 0 0 1 5
1897 2 6.4 -7.8 0 0 0 0 1 5
1930 2 6.2 -7.6 0 0 0 0 1 5
1931 2 6.4 -7.6 0 0 0 0 1 5
1964 2 6.2 -7.4 0 0 0 0 1.01475 5
1965 2 6.4 -7.4 0 0 0 0 1.01447 5
1898 2 6.6 -7.8 0 0 0 0 1 5
1899 2 6.8 -7.8 0 0 0 0 1 5
1932 2 6.6 -7.6 0 0 0 0 1 5
1933 2 6.8 -7.6 0 0 0 0 1 5
1966 2 6.6 -7.4 0 0 0 0 1.01442 5
1967 2 6.8 -7.4 0 0 0 0 1.01438 5
1900 2 7 -7.8 0 0 0 0 1 5
1901 2 7.2 -7.8 0 0 0 0 1 5
1934 2 7 -7.6 0 0 0 0 1 5
1935 2 7.2 -7.6 0 0 0 0 1 5
1968 2 7 -7.4 0 0 0 0 1.01436 5
1969 2 7.2 -7.4 0 0 0 0 1.01439 5
1977 2 2 -7.2 0 0 0 0 1.00234 5
2011 2 2 -7 0 0 0 0 1.00159 5
1978 2 2.2 -7.2 0 0 0 0 1.00097 5
1979 2 2.4 -7.2 0 0 0 0 0.997562 5
2012 2 2.2 -7 0 0 0 0 1.00039 5
2013 2 2.4 -7 0 0 0 0 0.998827 5
1980 2 2.6 -7.2 0 0 0 0 1.00012 5
1981 2 2.8 -7.2 0 0 0 0 1.00111 5
2014 2 2.6 -7 0 0 0 0 1.00002 5
2015 2 2.8 -7 0 0 0 0 1.0005 5
1982 2 3 -7.2 0 0 0 0 0.998254 5
2016 2 3 -7 0 0 0 0 0.999229 5
1983 2 3.2 -7.2 0 0 0 0 1.00035 5
2017 2 3.2 -7 0 0 0 0 1.00017 5
1984 2 3.4 -7.2 0 0 0 0 1.0013 5
2018 2 3.4 -7 0 0 0 0 1.00079 5
1985 2 3.6 -7.2 0 0 0 0 0.999916 5
2019 2 3.6 -7 0 0 0 0 1.00081 5
1986 2 3.8 -7.2 0 0 0 0 1.00544 5
2020 2 3.8 -7 0 0 0 0 1.0055 5
1987 2 4 -7.2 0 0 0 0 1.01535 5
1988 2 4.2 -7.2 0 0 0 0 1.021 5
2021 2 4 -7 0 0 0 0 1.01389 5
2022 2 4.2 -7 0 0 0 0 1.02031 5
1989 2 4.4 -7.2 0 0 0 0 1.01982 5
1990 2 4.6 -7.2 0 0 0 0 1.0168 5
2023 2 4.4 -7 0 0 0 0 1.02025 5
2024 2 4.6 -7 0 0 0 0 1.01721 5
1991 2 4.8 -7.2 0 0 0 0 1.01565 5
1992 2 5 -7.2 0 0 0 0 1.01522 5
2025 2 4.8 -7 0 0 0 0 1.0159 5
2026 2 5 -7 0 0 0 0 1.01555 5
1993 2 5.2 -7.2 0 0 0 0 1.0152 5
1994 2 5.4 -7.2 0 0 0 0 1.01512 5
2027 2 5.2 -7 0 0 0 0 1.01551 5
2028 2 5.4 -7 0 0 0 0 1.01539 5
1995 2 5.6 -7.2 0 0 0 0 1.01519 5
2029 2 5.6 -7 0 0 0 0 1.01541 5
1996 2 5.8 -7.2 0 0 0 0 1.01516 5
2030 2 5.8 -7 0 0 0 0 1.01535 5
1997 2 6 -7.2 0 0 0 0 1.01504 5
2031 2 6 -7 0 0 0 0 1.01523 5
1998 2 6.2 -7.2 0 0 0 0 1.0149 5
1999 2 6.4 -7.2 0 0 0 0 1.01473 5
2032 2 6.2 -7 0 0 0 0 1.01508 5
2033 2 6.4 -7 0 0 0 0 1.01492 5
2000 2 6.6 -7.2 0 0 0 0 1.01464 5
2001 2 6.8 -7.2 0 0 0 0 1.0146 5
2034 2 6.6 -7 0 0 0 0 1.01483 5
2035 2 6.8 -7 0 0 0 0 1.01478 5
2002 2 7 -7.2 0 0 0 0 1.01457 5
2003 2 7.2 -7.2 0 0 0 0 1.01453 5
2036 2 7 -7 0 0 0 0 1.01472 5
2037 2 7.2 -7 0 0 0 0 1.01466 5
10845 1 1.60188 -6.75103 0.02 0 -0.000544916 -0.000302286 1 2
10847 1 1.60738 -6.56461 0.02 0 1.40161e-05 1.30675e-05 1 2
10846 1 1.798 -6.76478 0.02 0 -0.00273004 -0.000586156 1 2
10848 1 1.80799 -6.57203 0.02 0 -3.88934e-05 0.000142639 1 2
10849 1 1.99364 -6.72967 0.02 0 -0.00305451 -0.000598774 1 2
10851 1 2.01949 -6.55761 0.02 0 4.51836e-05 0.000515834 1 2
10850 1 2.19776 -6.77955 0.02 0 -0.00352333 -0.000546455 1 2
10852 1 2.21839 -6.58151 0.02 0 3.50404e-05 0.000441908 1 2
10853 1 2.41903 -6.76313 0.02 0 -0.00298856 -0.000373241 1 2
10855 1 2.41689 -6.58016 0.02 0 -1.1476e-05 0.000301979 1 2
10854 1 2.61907 -6.73379 0.02 0 -0.00237437 -0.000358636 1 2
10856 1 2.61931 -6.55034 0.02 0 0.000172856 0.000332368 1 2
10857 1 2.8136 -6.7694 0.02 0 -0.00317194 -0.000438998 1 2
10859 1 2.81327 -6.56871 0.02 0 0.000170106 0.000381785 1 2
10858 1 3.02513 -6.75794 0.02 0 -0.00311839 -0.000430155 1 2
10860 1 3.00244 -6.57403 0.02 0 7.77332e-05 0.000384187 1 2
10861 1 3.22039 -6.73064 0.02 0 -0.0023815 -0.000348686 1 2
10863 1 3.2048 -6.55615 0.02 0 0.000170255 0.000368982 1 2
10501 1 3.6458 -6.58047 0.02 0 -0.000394314 0.000549913 1 2
10502 1 3.61881 -6.75534 0.02 0 -0.00315707 -0.000365784 1 2
10862 1 3.41303 -6.76686 0.02 0 -0.00311159 -0.00041437 1 2
10864 1 3.42683 -6.58062 0.02 0 0.000127618 0.000428025 1 2
10503 1 3.82252 -6.7545 0.02 0 -0.00587597 -0.000361953 1 2
10504 1 3.99987 -6.73754 0.02 0 -0.00883621 0.000876528 1.01298 2
10505 1 3.86221 -6.57021 0.02 0 -0.00249087 0.000622465 1 2
10506 1 3.99992 -6.56525 0.02 0 -0.00261662 0.000829497 1.01664 2
10507 1 4.07158 -6.79928 0.00697199 -0.000785294 0.000453243 -9.22983e-05 1.0274 0
10508 1 4.21284 -6.7094 0.00997577 0.00142366 0.000257832 0.000161715 1.02491 0
10509 1 4.16384 -6.54046 0.0139499 0.00384251 -6.6425e-05 9.94386e-05 1.02273 0
10510 1 4.30584 -6.49894 0.0140923 0.00383903 -7.63018e-06 -5.92434e-07 1.02089 0
10511 1 4.35676 -6.7405 0.00799445 0.000890097 8.39953e-05 3.27827e-05 1.02167 0
10512 1 4.43958 -6.59636 0.0119291 0.00254801 -5.8211e-06 -1.85168e-05 1.01851 0
10515 1 4.56853 -6.65631 0.00926337 0.00161179 -4.1202e-06 -1.10788e-05 1.01675 0
10516 1 4.74145 -6.53169 0.011009 0.00208566 -3.59653e-06 -1.102e-05 1.0165 0
10519 1 4.62724 -6.79532 0.0050593 0.000467327 3.65936e-07 -3.02765e-06 1.01749 0
10174 1 4.77667 -6.6793 0.00708405 0.00109876 -3.94598e-06 -8.36923e-06 1.01584 0
10173 1 4.94967 -6.54084 0.00942075 0.00147646 -1.06169e-05 -9.60525e-06 1.01619 0
10178 1 4.91632 -6.71975 0.00515991 0.000526571 -7.31355e-06 -5.25274e-06 1.01588 0
10182 1 5.12916 -6.61138 0.00694295 0.000787346 -1.2823e-05 -5.38722e-06 1.01579 0
10189 1 5.061 -6.78243 0.00338086 9.63957e-05 -7.55659e-06 -2.08938e-06 1.01628 0
3101 1 5.26051 -6.71264 0.00423683 0.000273667 -1.04272e-05 -1.52517e-06 1.01558 0
10185 1 5.43466 -6.49226 0.00820331 0.000900521 -1.37134e-05 -3.35182e-06 1.01563 0
3103 1 5.44409 -6.6474 0.00519403 0.000387641 -1.1225e-05 -1.06522e-06 1.01542 0
3105 1 5.60439 -6.59263 0.00594377 0.000486027 -1.04307e-05 -6.62004e-07 1.01537 0
3109 1 5.45626 -6.80678 0.00253329 -5.23664e-05 -7.53958e-06 1.04618e-06 1.0158 0
3111 1 5.76569 -6.60047 0.00541231 0.000396235 -8.10915e-06 2.97005e-07 1.01531 0
3113 1 5.74354 -6.76297 0.0027411 3.0582e-05 -5.83286e-06 8.53208e-07 1.01567 0
3106 1 5.98696 -6.56996 0.00553181 0.000390725 -5.10435e-06 4.71462e-07 1.01519 0
3114 1 6.14122 -6.57909 0.00513194 0.000306199 -3.25837e-06 6.06632e-07 1.01508 0
3116 1 5.93047 -6.75678 0.00262869 -4.71723e-07 -4.47454e-06 9.17003e-07 1.01555 0
3117 1 6.13072 -6.75315 0.00250373 -2.068e-05 -2.88099e-06 9.16575e-07 1.0154 0
3112 1 6.36032 -6.55987 0.00513802 0.000255789 -9.86777e-07 8.73014e-07 1.01493 0
3115 1 6.54582 -6.54865 0.00509456 0.00021512 5.67612e-07 8.62738e-07 1.01483 0
3118 1 6.31039 -6.72566 0.00276307 -9.08913e-06 -1.80061e-06 7.81884e-07 1.01518 0
3119 1 6.48266 -6.75295 0.00230248 -8.07655e-05 -8.5625e-07 7.63427e-07 1.01517 0
3120 1 6.65885 -6.66493 0.00337953 6.10524e-05 3.88323e-07 8.15421e-07 1.01483 0
3121 1 6.77758 -6.7632 0.00205717 -0.000112411 3.4888e-07 5.84442e-07 1.01507 0
3122 1 6.94483 -6.67247 0.00308504 4.2003e-05 1.37562e-06 7.46412e-07 1.01471 0
3154 1 7.25549 -6.55062 0.00450016 9.29832e-05 2.85875e-06 9.55046e-07 1.01454 0
3123 1 7.08873 -6.7583 0.00200797 -9.17738e-05 1.00125e-06 4.66444e-07 1.01488 0
3124 1 7.27919 -6.72587 0.00231566 -7.06374e-05 1.37598e-06 4.61217e-07 1.01476 0
10865 1 1.62264 -6.37867 0.02 0 5.00468e-06 5.62253e-06 1 2
10866 1 1.62863 -6.19455 0.02 0 1.27948e-07 1.81616e-07 1 2
10867 1 1.82075 -6.38701 0.02 0 1.09468e-05 4.07143e-05 1 2
10868 1 1.85753 -6.20618 0.02 0 7.53186e-07 4.3848e-06 1 2
10869 1 2.02927 -6.38021 0.02 0 4.35583e-05 0.000118019 1 2
10871 1 2.07547 -6.19941 0.02 0 3.40359e-06 1.41948e-05 1 2
10870 1 2.23284 -6.38326 0.02 0 0.000103365 0.00016369 1 2
10872 1 2.27806 -6.18549 0.02 0 5.98276e-06 1.56182e-05 1 2
10873 1 2.42577 -6.39432 0.02 0 0.000117484 0.000142999 1 2
10875 1 2.47345 -6.19539 0.02 0 7.49785e-06 1.83909e-05 1 2
10874 1 2.62216 -6.35838 0.02 0 8.12067e-05 0.000104591 1 2
10876 1 2.67049 -6.16162 0.02 0 3.45252e-06 9.43883e-06 1 2
10877 1 2.81983 -6.37339 0.02 0 9.55873e-05 0.000130551 1 2
10879 1 2.86381 -6.18031 0.02 0 5.219e-06 1.33598e-05 1 2
10878 1 3.02738 -6.38819 0.02 0 0.000101267 0.000137149 1 2
10880 1 3.04995 -6.19007 0.02 0 6.46827e-06 1.62878e-05 1 2
10881 1 3.2556 -6.38878 0.02 0 0.000106716 0.000183927 1 2
10883 1 3.23787 -6.20412 0.02 0 8.40284e-06 1.81799e-05 1 2
10521 1 3.66308 -6.2288 0.02 0 -0.000558777 4.23385e-05 1 2
10522 1 3.67257 -6.4079 0.02 0 -0.000522826 0.00021805 1 2
10882 1 3.46771 -6.40489 0.02 0 0.000114171 0.000222304 1 2
10884 1 3.4423 -6.22343 0.02 0 7.88599e-06 2.00472e-05 1 2
10523 1 3.87494 -6.38721 0.02 0 -0.00313984 0.00027275 1 2
10524 1 3.88498 -6.20378 0.02 0 -0.00351929 0.000382295 1 2
10525 1 4.01697 -6.37614 0.0144834 0.00191447 -1.9738e-05 1.24114e-05 1.01763 0
10526 1 4.03353 -6.18385 0.0143405 0.00196556 5.03139e-06 -1.57514e-06 1.01802 0
10513 1 4.45045 -6.41089 0.0146738 0.00381938 5.90907e-06 -8.43862e-06 1.01816 0
10527 1 4.18385 -6.3394 0.0138987 0.0040292 -3.23032e-06 -1.97005e-05 1.02108 0
10528 1 4.19556 -6.1366 0.0142821 0.00356874 1.64777e-05 6.99462e-06 1.01987 0
10529 1 4.33635 -6.27714 0.0153507 0.00441817 1.30103e-05 -7.5007e-06 1.01885 0
10530 1 4.36879 -6.10433 0.0159708 0.00436351 1.29179e-05 8.09311e-06 1.01788 0
10531 1 4.51712 -6.24388 0.0155917 0.00427719 6.11103e-06 -1.35179e-06 1.0172 0
10533 1 4.52357 -6.02807 0.016405 0.00452821 3.04256e-06 8.18276e-06 1.01687 0
10514 1 4.60321 -6.45213 0.0133853 0.00310643 1.98101e-06 -1.01994e-05 1.01713 0
10517 1 4.72184 -6.32252 0.0141523 0.00342417 -2.77593e-06 -9.35606e-06 1.01687 0
10532 1 4.65658 -6.15919 0.0156541 0.00422798 -1.82769e-06 -1.30473e-06 1.01686 0
10535 1 4.82697 -6.16109 0.0150155 0.0037955 -7.8158e-06 -8.6816e-06 1.01681 0
10518 1 4.87555 -6.39019 0.0124223 0.00254455 -8.72387e-06 -1.19976e-05 1.01667 0
10520 1 4.98393 -6.25765 0.0134623 0.00288873 -1.11387e-05 -1.20476e-05 1.01664 0
10536 1 4.96423 -6.06523 0.0151717 0.00379014 -1.02654e-05 -1.05088e-05 1.01666 0
10177 1 5.09843 -6.44259 0.0104138 0.0016408 -1.40065e-05 -9.41402e-06 1.01624 0
10181 1 5.27106 -6.47963 0.00902723 0.00114374 -1.49093e-05 -5.76358e-06 1.01587 0
10539 1 5.12378 -6.07907 0.0145143 0.00330831 -1.04921e-05 -1.19169e-05 1.01641 0
10175 1 5.14954 -6.28559 0.0123797 0.0022887 -1.32345e-05 -1.05979e-05 1.01634 0
10176 1 5.27857 -6.185 0.0129672 0.00246502 -1.21091e-05 -9.88148e-06 1.01618 0
10179 1 5.38078 -6.30778 0.0111227 0.00170428 -1.31499e-05 -7.03115e-06 1.01597 0
10195 1 5.41352 -6.06657 0.0135903 0.00266568 -8.93721e-06 -8.79717e-06 1.01602 0
10180 1 5.55567 -6.14254 0.012363 0.00207714 -8.49365e-06 -6.28064e-06 1.01585 0
10183 1 5.54399 -6.32769 0.0102485 0.00138175 -1.14025e-05 -4.50838e-06 1.01576 0
10186 1 5.67607 -6.41784 0.00858482 0.000953412 -9.94087e-06 -2.12862e-06 1.01556 0
10184 1 5.71632 -6.18256 0.0114051 0.00166381 -6.75696e-06 -3.86607e-06 1.0157 0
10187 1 5.91389 -6.15164 0.0111515 0.00148974 -3.13909e-06 -2.16042e-06 1.01553 0
10190 1 5.82798 -6.31341 0.00954316 0.00112003 -6.54614e-06 -1.81593e-06 1.01555 0
10188 1 6.08399 -6.11324 0.0111038 0.00137339 -2.81471e-07 -1.06358e-06 1.0154 0
3102 1 5.88767 -6.46259 0.00739003 0.000676924 -6.58802e-06 -4.5921e-07 1.01538 0
10192 1 6.02441 -6.31854 0.00897787 0.000918248 -3.39415e-06 -6.28354e-07 1.0154 0
3104 1 6.18935 -6.28518 0.00900179 0.000840509 -8.12888e-07 -2.64203e-08 1.01529 0
3135 1 6.30294 -6.13396 0.0103891 0.00106172 1.97438e-06 1.04672e-07 1.01525 0
3107 1 6.24559 -6.43595 0.00702121 0.00050013 -1.39607e-06 4.62699e-07 1.0151 0
3138 1 6.41101 -6.24286 0.00901758 0.00073441 1.94422e-06 5.9635e-07 1.01514 0
3139 1 6.61751 -6.18976 0.00920734 0.000672421 3.91627e-06 1.09701e-06 1.01502 0
3108 1 6.46354 -6.3907 0.00721968 0.000452023 1.13095e-06 7.99939e-07 1.015 0
3140 1 6.80763 -6.13226 0.00949331 0.000627906 5.19899e-06 1.55534e-06 1.01492 0
3110 1 6.65033 -6.35772 0.00732696 0.000412483 2.73435e-06 1.05645e-06 1.01492 0
3150 1 6.75559 -6.50638 0.00543404 0.000233022 2.14167e-06 1.01606e-06 1.01476 0
3141 1 7.00931 -6.07733 0.00976184 0.000560976 5.91636e-06 2.03981e-06 1.01481 0
3145 1 6.8348 -6.31429 0.00757542 0.000392538 3.96471e-06 1.33667e-06 1.01485 0
3147 1 6.99839 -6.2493 0.00807746 0.000385486 4.83673e-06 1.659e-06 1.01479 0
3151 1 6.92645 -6.49134 0.00546159 0.000192848 2.88351e-06 1.04775e-06 1.01469 0
3152 1 7.09409 -6.52081 0.00498031 0.00015377 3.05023e-06 1.05589e-06 1.01461 0
3143 1 7.24292 -6.15782 0.00876008 0.000348153 5.37588e-06 2.17751e-06 1.01469 0
3148 1 7.13228 -6.33655 0.00702931 0.000265491 4.37664e-06 1.58018e-06 1.01469 0
10359 1 4.98085 -0.00741649 0.0159995 -0.000139691 -7.56029e-06 -7.2942e-07 1.01439 0
3149 1 7.304 -6.32795 0.00698627 0.000210262 4.34127e-06 1.71359e-06 1.01461 0
10359 1 4.1856 -0.0795612 0.0149946 7.22781e-05 6.38136e-06 -6.88428e-06 1.01576 0
10885 1 1.63677 -6.01156 0.02 0 9.79944e-10 1.7754e-09 1 2
10886 1 1.64941 -5.82135 0.02 0 0 0 1 2
10887 1 1.84081 -6.02146 0.02 0 4.44305e-09 4.89143e-08 1 2
10888 1 1.85668 -5.82821 0.02 0 4.26091e-12 5.63951e-11 1 2
10889 1 2.04489 -6.01249 0.02 0 1.70574e-08 1.24942e-07 1 2
10891 1 2.0685 -5.82207 0.02 0 2.78455e-11 2.78589e-10 1 2
10890 1 2.25044 -5.99312 0.02 0 3.34862e-08 1.07519e-07 1 2
10892 1 2.28417 -5.80529 0.02 0 3.45753e-11 1.95081e-10 1 2
10893 1 2.45784 -5.99713 0.02 0 2.56971e-08 1.05316e-07 1 2
10895 1 2.48772 -5.79812 0.02 0 2.47009e-11 1.62207e-10 1 2
10894 1 2.66135 -5.96557 0.02 0 1.19587e-08 4.52225e-08 1 2
10896 1 2.68762 -5.7706 0.02 0 2.01241e-12 1.69617e-11 1 2
10897 1 2.86333 -5.9826 0.02 0 1.72275e-08 7.49256e-08 1 2
10899 1 2.88445 -5.7827 0.02 0 7.26694e-12 5.37217e-11 1 2
10898 1 3.05675 -5.96801 0.02 0 7.4259e-09 3.50982e-08 1 2
10900 1 3.07591 -5.75519 0.02 0 7.92168e-13 8.82926e-12 1 2
10901 1 3.24472 -6.00986 0.02 0 4.92814e-08 1.96681e-07 1 2
10903 1 3.26157 -5.80721 0.02 0 2.7311e-11 8.62528e-11 1 2
10541 1 3.63864 -5.85696 0.02 0 -0.000365049 1.27588e-05 1 2
10542 1 3.65859 -6.0486 0.02 0 -0.000530464 1.98448e-05 1 2
10902 1 3.44762 -6.03906 0.02 0 -4.28325e-06 2.99215e-07 1 2
10904 1 3.44871 -5.84507 0.02 0 -5.44539e-06 -4.10586e-08 1 2
10544 1 3.82834 -5.82533 0.02 0 -0.00208705 0.000172135 1 2
10543 1 3.86415 -6.01867 0.02 0 -0.00308384 0.00029418 1 2
10545 1 3.99976 -5.8119 0.02 0 -0.00250821 0.000642981 1.01122 2
10546 1 4.01844 -5.99577 0.0146913 0.00150083 -2.75908e-05 4.06608e-05 1.0167 0
10548 1 4.15903 -5.76807 0.0150992 0.00289719 -0.000127098 -2.01035e-05 1.01845 0
10547 1 4.18654 -5.95114 0.0149715 0.00295817 -5.19993e-05 6.36726e-05 1.01935 0
10549 1 4.33186 -5.75277 0.0160134 0.00387407 -5.16808e-06 1.27295e-05 1.01764 0
10550 1 4.35594 -5.92633 0.016219 0.00415337 -4.53323e-06 1.85341e-05 1.01777 0
10551 1 4.51653 -5.84141 0.0166942 0.00454529 -1.16146e-06 1.39472e-05 1.01662 0
10553 1 4.50711 -5.6603 0.0167276 0.00444023 -8.80811e-06 1.0216e-05 1.01625 0
10534 1 4.69544 -5.9882 0.0162989 0.00452879 -8.54636e-06 2.75705e-06 1.0167 0
10537 1 4.85173 -5.92842 0.0161805 0.0044476 -1.20428e-05 -4.02144e-06 1.01666 0
10554 1 4.68593 -5.63673 0.0169355 0.00478762 -1.9557e-05 2.5919e-06 1.01617 0
10552 1 4.68643 -5.80924 0.0167476 0.00473568 -1.38655e-05 5.76305e-06 1.01645 0
10555 1 4.85755 -5.74533 0.0167048 0.00475686 -1.673e-05 -2.24622e-06 1.01647 0
10557 1 4.8596 -5.55977 0.0169909 0.00490535 -1.83134e-05 -3.72042e-06 1.01628 0
10538 1 5.02581 -5.88704 0.0159634 0.00421303 -1.04733e-05 -9.87169e-06 1.01649 0
10556 1 5.02143 -5.69344 0.0166412 0.004638 -1.16794e-05 -7.71332e-06 1.01638 0
10193 1 5.26178 -5.9838 0.0147553 0.00332945 -8.7998e-06 -1.0799e-05 1.01619 0
10540 1 5.17802 -5.81609 0.0159421 0.00406422 -7.63532e-06 -1.05018e-05 1.01626 0
10559 1 5.1853 -5.62849 0.0166113 0.00446005 -5.95215e-06 -8.51606e-06 1.01618 0
10194 1 5.34995 -5.82933 0.0154522 0.00362797 -5.10192e-06 -9.59927e-06 1.01604 0
10213 1 5.34801 -5.62213 0.0163753 0.00413702 -2.22765e-06 -7.43609e-06 1.016 0
10198 1 5.68084 -5.97729 0.0134695 0.00242876 -3.7651e-06 -5.35888e-06 1.01574 0
10197 1 5.52118 -5.92214 0.0143803 0.00295133 -4.81159e-06 -7.64319e-06 1.01589 0
10196 1 5.49199 -5.73362 0.0155998 0.00356652 -1.89803e-06 -7.01907e-06 1.01589 0
10199 1 5.65317 -5.76274 0.0150459 0.00312695 -4.53193e-07 -5.30084e-06 1.01576 0
10201 1 5.84502 -6.00047 0.0127942 0.00205073 -1.93918e-06 -3.27415e-06 1.0156 0
10200 1 5.80609 -5.78807 0.0145045 0.0027249 7.53631e-07 -3.63402e-06 1.01563 0
10202 1 5.95689 -5.86958 0.0135542 0.00222093 1.2623e-06 -2.33407e-06 1.01551 0
10203 1 5.93892 -5.66855 0.014925 0.00273475 3.41254e-06 -1.83796e-06 1.01552 0
10205 1 6.10378 -5.91634 0.0128283 0.00184848 2.23949e-06 -1.20204e-06 1.0154 0
10204 1 6.10487 -5.71198 0.0143051 0.0023155 4.28635e-06 -8.45103e-07 1.0154 0
10191 1 6.24782 -5.98765 0.0118901 0.00146658 2.89964e-06 -3.10986e-07 1.01529 0
10206 1 6.2784 -5.79506 0.0133704 0.00184081 4.87942e-06 -5.79178e-08 1.01527 0
3136 1 6.53286 -6.05048 0.0107331 0.000994192 4.55263e-06 9.0806e-07 1.0151 0
10209 1 6.4606 -5.74242 0.013404 0.00165558 6.35367e-06 8.36061e-07 1.01513 0
10210 1 6.42291 -5.92841 0.0120316 0.00136347 4.82553e-06 5.03646e-07 1.01517 0
3169 1 6.61494 -5.84458 0.0123658 0.00126986 6.42976e-06 1.27342e-06 1.01504 0
10212 1 6.70796 -5.67717 0.0134609 0.00139364 7.57812e-06 1.77288e-06 1.01497 0
3137 1 6.72755 -5.97571 0.0110781 0.000930637 6.00922e-06 1.5316e-06 1.01497 0
3170 1 6.83904 -5.77786 0.0125396 0.00109093 7.34156e-06 2.03053e-06 1.01489 0
3172 1 6.92061 -5.93012 0.0111959 0.000810465 6.66261e-06 2.08995e-06 1.01485 0
3171 1 7.01133 -5.71541 0.0127924 0.000960301 7.58705e-06 2.55201e-06 1.01479 0
3173 1 7.11821 -5.85354 0.0116021 0.000712386 6.92743e-06 2.62856e-06 1.01474 0
3206 1 7.21323 -5.6743 0.0128944 0.000767096 7.28383e-06 3.01533e-06 1.01467 0
3142 1 7.18806 -6.00095 0.010272 0.000513764 6.20511e-06 2.50543e-06 1.01471 0
10362 1 4.03531 -0.312379 0.0152485 -9.42848e-05 2.18111e-06 -5.88468e-06 1.01478 0
10015 1 6.29069 -0.0098092 0.0162185 -0.000120695 7.05243e-06 -4.82835e-06 1.01452 0
10355 1 4.49427 -0.19511 0.0160591 5.47113e-05 3.58421e-06 -3.00869e-06 1.0138 0
10905 1 1.68773 -5.62226 0.02 0 0 0 1 2
10906 1 1.70314 -5.41693 0.02 0 0 0 1 2
10907 1 1.87627 -5.62507 0.02 0 0 0 1 2
10908 1 1.89141 -5.40769 0.02 0 0 0 1 2
10909 1 2.06666 -5.62812 0.02 0 0 0 1 2
10910 1 2.07833 -5.42473 0.02 0 0 0 1 2
10911 1 2.26533 -5.61507 0.02 0 0 0 1 2
10912 1 2.27022 -5.41754 0.02 0 0 0 1 2
10915 1 2.46223 -5.39761 0.02 0 0 0 1 2
10913 1 2.46939 -5.5998 0.02 0 0 0 1 2
10914 1 2.67319 -5.57637 0.02 0 0 0 1 2
10916 1 2.65451 -5.37873 0.02 0 0 0 1 2
10917 1 2.87557 -5.57908 0.02 0 0 0 1 2
10919 1 2.85093 -5.3784 0.02 0 0 0 1 2
10918 1 3.07257 -5.55207 0.02 0 0 0 1 2
10920 1 3.05255 -5.35989 0.02 0 0 0 1 2
10921 1 3.26671 -5.59989 0.02 0 -6.95145e-20 -2.39553e-19 1 2
10923 1 3.26141 -5.39801 0.02 0 0 0 1 2
10561 1 3.65006 -5.64953 0.02 0 -0.000477367 -7.23084e-06 1 2
10563 1 3.65136 -5.44144 0.02 0 -0.000489097 3.96514e-05 1 2
10565 1 3.64191 -5.23262 0.02 0 -0.000255003 5.60361e-05 1 2
10922 1 3.45777 -5.6399 0.02 0 -8.91497e-06 2.48212e-08 1 2
10924 1 3.45819 -5.42972 0.02 0 -8.80747e-06 3.55002e-07 1 2
10562 1 3.84448 -5.62334 0.02 0 -0.00269887 9.66258e-06 1 2
10564 1 3.84464 -5.41999 0.02 0 -0.00264303 0.000388524 1 2
10568 1 4.00007 -5.21549 0.0191865 0.000236261 -0.00325418 0.000945044 1.00861 0
10567 1 4.0058 -5.41639 0.0148969 0.00133549 4.67133e-05 -3.45167e-05 1.01352 0
10566 1 4.00672 -5.61629 0.014819 0.0011737 -1.5692e-05 1.3291e-05 1.01392 0
10569 1 4.16952 -5.57685 0.014136 0.0026497 3.64198e-05 -9.7322e-06 1.01781 0
10571 1 4.16456 -5.3807 0.0144371 0.00215009 0.000121965 -5.51435e-05 1.01766 0
10570 1 4.33824 -5.57594 0.0158155 0.00367808 2.1237e-05 6.21066e-06 1.01703 0
10572 1 4.32976 -5.39215 0.0157314 0.0033438 4.92102e-05 -9.12332e-06 1.01702 0
10573 1 4.31368 -5.20249 0.0156698 0.00305181 7.28812e-05 -3.0115e-07 1.01745 0
10574 1 4.49558 -5.46919 0.0166752 0.00419802 -7.28699e-06 1.70484e-06 1.01595 0
10576 1 4.48052 -5.27128 0.0166505 0.00389973 3.16338e-06 -6.23142e-06 1.01596 0
10558 1 5.0332 -5.50628 0.0169975 0.00484924 -1.06815e-05 -6.60575e-06 1.01624 0
10575 1 4.66761 -5.4689 0.016996 0.00469651 -1.89245e-05 -2.69193e-06 1.01591 0
10577 1 4.65108 -5.29235 0.016997 0.00452533 -1.20305e-05 -6.68534e-06 1.01573 0