ITEM: TIMESTEP
34000
ITEM: NUMBER OF ATOMS
11257
ITEM: BOX BOUNDS ff ff pp
0.0000000000000000e+00 2.2000000000000000e+01
-1.0000000000000000e+01 1.0000000000000000e+01
-2.0000000000000000e-02 2.0000000000000000e-02
ITEM: ATOMS id type x y vx vy fx fy c_den c_phase
1501 2 2 -10 0 0 0 0 1 5
1535 2 2 -9.8 0 0 0 0 1 5
1569 2 2 -9.6 0 0 0 0 1 5
1502 2 2.2 -10 0 0 0 0 1 5
1503 2 2.4 -10 0 0 0 0 1 5
1536 2 2.2 -9.8 0 0 0 0 1 5
1537 2 2.4 -9.8 0 0 0 0 1 5
1570 2 2.2 -9.6 0 0 0 0 1 5
1571 2 2.4 -9.6 0 0 0 0 1 5
1504 2 2.6 -10 0 0 0 0 1 5
1505 2 2.8 -10 0 0 0 0 1 5
1538 2 2.6 -9.8 0 0 0 0 1 5
1539 2 2.8 -9.8 0 0 0 0 1 5
1572 2 2.6 -9.6 0 0 0 0 1 5
1573 2 2.8 -9.6 0 0 0 0 1 5
1506 2 3 -10 0 0 0 0 1 5
1540 2 3 -9.8 0 0 0 0 1 5
1574 2 3 -9.6 0 0 0 0 1 5
1507 2 3.2 -10 0 0 0 0 1 5
1541 2 3.2 -9.8 0 0 0 0 1 5
1575 2 3.2 -9.6 0 0 0 0 1 5
1508 2 3.4 -10 0 0 0 0 1 5
1542 2 3.4 -9.8 0 0 0 0 1 5
1576 2 3.4 -9.6 0 0 0 0 1 5
1509 2 3.6 -10 0 0 0 0 1 5
1543 2 3.6 -9.8 0 0 0 0 1 5
1577 2 3.6 -9.6 0 0 0 0 1 5
1510 2 3.8 -10 0 0 0 0 1 5
1544 2 3.8 -9.8 0 0 0 0 1 5
1578 2 3.8 -9.6 0 0 0 0 1 5
1511 2 4 -10 0 0 0 0 1 5
1512 2 4.2 -10 0 0 0 0 1 5
1545 2 4 -9.8 0 0 0 0 1 5
1546 2 4.2 -9.8 0 0 0 0 1 5
1579 2 4 -9.6 0 0 0 0 1 5
1580 2 4.2 -9.6 0 0 0 0 1 5
1513 2 4.4 -10 0 0 0 0 1 5
1514 2 4.6 -10 0 0 0 0 1 5
1547 2 4.4 -9.8 0 0 0 0 1 5
1548 2 4.6 -9.8 0 0 0 0 1 5
1581 2 4.4 -9.6 0 0 0 0 1 5
1582 2 4.6 -9.6 0 0 0 0 1 5
1515 2 4.8 -10 0 0 0 0 1 5
1516 2 5 -10 0 0 0 0 1 5
1549 2 4.8 -9.8 0 0 0 0 1 5
1550 2 5 -9.8 0 0 0 0 1 5
1583 2 4.8 -9.6 0 0 0 0 1 5
1584 2 5 -9.6 0 0 0 0 1 5
1517 2 5.2 -10 0 0 0 0 1 5
1518 2 5.4 -10 0 0 0 0 1 5
1551 2 5.2 -9.8 0 0 0 0 1 5
1552 2 5.4 -9.8 0 0 0 0 1 5
1585 2 5.2 -9.6 0 0 0 0 1 5
1586 2 5.4 -9.6 0 0 0 0 1 5
1519 2 5.6 -10 0 0 0 0 1 5
1553 2 5.6 -9.8 0 0 0 0 1 5
1587 2 5.6 -9.6 0 0 0 0 1 5
1520 2 5.8 -10 0 0 0 0 1 5
1554 2 5.8 -9.8 0 0 0 0 1 5
1588 2 5.8 -9.6 0 0 0 0 1 5
1521 2 6 -10 0 0 0 0 1 5
1555 2 6 -9.8 0 0 0 0 1 5
1589 2 6 -9.6 0 0 0 0 1 5
1522 2 6.2 -10 0 0 0 0 1 5
1523 2 6.4 -10 0 0 0 0 1 5
1556 2 6.2 -9.8 0 0 0 0 1 5
1557 2 6.4 -9.8 0 0 0 0 1 5
1590 2 6.2 -9.6 0 0 0 0 1 5
1591 2 6.4 -9.6 0 0 0 0 1 5
1524 2 6.6 -10 0 0 0 0 1 5
1525 2 6.8 -10 0 0 0 0 1 5
1558 2 6.6 -9.8 0 0 0 0 1 5
1559 2 6.8 -9.8 0 0 0 0 1 5
1592 2 6.6 -9.6 0 0 0 0 1 5
1593 2 6.8 -9.6 0 0 0 0 1 5
1526 2 7 -10 0 0 0 0 1 5
1527 2 7.2 -10 0 0 0 0 1 5
1560 2 7 -9.8 0 0 0 0 1 5
1561 2 7.2 -9.8 0 0 0 0 1 5
1594 2 7 -9.6 0 0 0 0 1 5
1595 2 7.2 -9.6 0 0 0 0 1 5
1603 2 2 -9.4 0 0 0 0 1 5
1637 2 2 -9.2 0 0 0 0 1 5
1604 2 2.2 -9.4 0 0 0 0 1 5
1605 2 2.4 -9.4 0 0 0 0 1 5
1638 2 2.2 -9.2 0 0 0 0 1 5
1639 2 2.4 -9.2 0 0 0 0 1 5
1606 2 2.6 -9.4 0 0 0 0 1 5
1607 2 2.8 -9.4 0 0 0 0 1 5
1640 2 2.6 -9.2 0 0 0 0 1 5
1641 2 2.8 -9.2 0 0 0 0 1 5
1608 2 3 -9.4 0 0 0 0 1 5
1642 2 3 -9.2 0 0 0 0 1 5
1609 2 3.2 -9.4 0 0 0 0 1 5
1643 2 3.2 -9.2 0 0 0 0 1 5
1610 2 3.4 -9.4 0 0 0 0 1 5
1644 2 3.4 -9.2 0 0 0 0 1 5
1611 2 3.6 -9.4 0 0 0 0 1 5
1645 2 3.6 -9.2 0 0 0 0 1 5
1612 2 3.8 -9.4 0 0 0 0 1 5
1646 2 3.8 -9.2 0 0 0 0 1 5
1613 2 4 -9.4 0 0 0 0 1 5
1614 2 4.2 -9.4 0 0 0 0 1 5
1647 2 4 -9.2 0 0 0 0 1 5
1648 2 4.2 -9.2 0 0 0 0 1 5
1615 2 4.4 -9.4 0 0 0 0 1 5
1616 2 4.6 -9.4 0 0 0 0 1 5
1649 2 4.4 -9.2 0 0 0 0 1 5
1650 2 4.6 -9.2 0 0 0 0 1 5
1617 2 4.8 -9.4 0 0 0 0 1 5
1618 2 5 -9.4 0 0 0 0 1 5
1651 2 4.8 -9.2 0 0 0 0 1 5
1652 2 5 -9.2 0 0 0 0 1 5
1619 2 5.2 -9.4 0 0 0 0 1 5
1620 2 5.4 -9.4 0 0 0 0 1 5
1653 2 5.2 -9.2 0 0 0 0 1 5
1654 2 5.4 -9.2 0 0 0 0 1 5
1621 2 5.6 -9.4 0 0 0 0 1 5
1655 2 5.6 -9.2 0 0 0 0 1 5
1622 2 5.8 -9.4 0 0 0 0 1 5
1656 2 5.8 -9.2 0 0 0 0 1 5
1623 2 6 -9.4 0 0 0 0 1 5
1657 2 6 -9.2 0 0 0 0 1 5
1624 2 6.2 -9.4 0 0 0 0 1 5
1625 2 6.4 -9.4 0 0 0 0 1 5
1658 2 6.2 -9.2 0 0 0 0 1 5
1659 2 6.4 -9.2 0 0 0 0 1 5
1626 2 6.6 -9.4 0 0 0 0 1 5
1627 2 6.8 -9.4 0 0 0 0 1 5
1660 2 6.6 -9.2 0 0 0 0 1 5
1661 2 6.8 -9.2 0 0 0 0 1 5
1628 2 7 -9.4 0 0 0 0 1 5
1629 2 7.2 -9.4 0 0 0 0 1 5
1662 2 7 -9.2 0 0 0 0 1 5
1663 2 7.2 -9.2 0 0 0 0 1 5
1671 2 2 -9 0 0 0 0 1 5
1705 2 2 -8.8 0 0 0 0 1 5
1672 2 2.2 -9 0 0 0 0 1 5
1673 2 2.4 -9 0 0 0 0 1 5
1706 2 2.2 -8.8 0 0 0 0 1 5
1707 2 2.4 -8.8 0 0 0 0 1 5
1674 2 2.6 -9 0 0 0 0 1 5
1675 2 2.8 -9 0 0 0 0 1 5
1708 2 2.6 -8.8 0 0 0 0 1 5
1709 2 2.8 -8.8 0 0 0 0 1 5
1676 2 3 -9 0 0 0 0 1 5
1710 2 3 -8.8 0 0 0 0 1 5
1677 2 3.2 -9 0 0 0 0 1 5
1711 2 3.2 -8.8 0 0 0 0 1 5
1678 2 3.4 -9 0 0 0 0 1 5
1712 2 3.4 -8.8 0 0 0 0 1 5
1679 2 3.6 -9 0 0 0 0 1 5
1713 2 3.6 -8.8 0 0 0 0 1 5
1680 2 3.8 -9 0 0 0 0 1 5
1714 2 3.8 -8.8 0 0 0 0 1 5
1681 2 4 -9 0 0 0 0 1 5
1682 2 4.2 -9 0 0 0 0 1 5
1715 2 4 -8.8 0 0 0 0 1 5
1716 2 4.2 -8.8 0 0 0 0 1 5
1683 2 4.4 -9 0 0 0 0 1 5
1684 2 4.6 -9 0 0 0 0 1 5
1717 2 4.4 -8.8 0 0 0 0 1 5
1718 2 4.6 -8.8 0 0 0 0 1 5
1685 2 4.8 -9 0 0 0 0 1 5
1686 2 5 -9 0 0 0 0 1 5
1719 2 4.8 -8.8 0 0 0 0 1 5
1720 2 5 -8.8 0 0 0 0 1 5
1687 2 5.2 -9 0 0 0 0 1 5
1688 2 5.4 -9 0 0 0 0 1 5
1721 2 5.2 -8.8 0 0 0 0 1 5
1722 2 5.4 -8.8 0 0 0 0 1 5
1689 2 5.6 -9 0 0 0 0 1 5
1723 2 5.6 -8.8 0 0 0 0 1 5
1690 2 5.8 -9 0 0 0 0 1 5
1724 2 5.8 -8.8 0 0 0 0 1 5
1691 2 6 -9 0 0 0 0 1 5
1725 2 6 -8.8 0 0 0 0 1 5
1692 2 6.2 -9 0 0 0 0 1 5
1693 2 6.4 -9 0 0 0 0 1 5
1726 2 6.2 -8.8 0 0 0 0 1 5
1727 2 6.4 -8.8 0 0 0 0 1 5
1694 2 6.6 -9 0 0 0 0 1 5
1695 2 6.8 -9 0 0 0 0 1 5
1728 2 6.6 -8.8 0 0 0 0 1 5
1729 2 6.8 -8.8 0 0 0 0 1 5
1696 2 7 -9 0 0 0 0 1 5
1697 2 7.2 -9 0 0 0 0 1 5
1730 2 7 -8.8 0 0 0 0 1 5
1731 2 7.2 -8.8 0 0 0 0 1 5
1739 2 2 -8.6 0 0 0 0 1 5
1773 2 2 -8.4 0 0 0 0 1 5
1740 2 2.2 -8.6 0 0 0 0 1 5
1741 2 2.4 -8.6 0 0 0 0 1 5
1774 2 2.2 -8.4 0 0 0 0 1 5
1775 2 2.4 -8.4 0 0 0 0 1 5
1742 2 2.6 -8.6 0 0 0 0 1 5
1743 2 2.8 -8.6 0 0 0 0 1 5
1776 2 2.6 -8.4 0 0 0 0 1 5
1777 2 2.8 -8.4 0 0 0 0 1 5
1744 2 3 -8.6 0 0 0 0 1 5
1778 2 3 -8.4 0 0 0 0 1 5
1745 2 3.2 -8.6 0 0 0 0 1 5
1779 2 3.2 -8.4 0 0 0 0 1 5
1746 2 3.4 -8.6 0 0 0 0 1 5
1780 2 3.4 -8.4 0 0 0 0 1 5
1747 2 3.6 -8.6 0 0 0 0 1 5
1781 2 3.6 -8.4 0 0 0 0 1 5
1748 2 3.8 -8.6 0 0 0 0 1 5
1782 2 3.8 -8.4 0 0 0 0 1 5
1749 2 4 -8.6 0 0 0 0 1 5
1750 2 4.2 -8.6 0 0 0 0 1 5
1783 2 4 -8.4 0 0 0 0 1 5
1784 2 4.2 -8.4 0 0 0 0 1 5
1751 2 4.4 -8.6 0 0 0 0 1 5
1752 2 4.6 -8.6 0 0 0 0 1 5
1785 2 4.4 -8.4 0 0 0 0 1 5
1786 2 4.6 -8.4 0 0 0 0 1 5
1753 2 4.8 -8.6 0 0 0 0 1 5
1754 2 5 -8.6 0 0 0 0 1 5
1787 2 4.8 -8.4 0 0 0 0 1 5
1788 2 5 -8.4 0 0 0 0 1 5
1755 2 5.2 -8.6 0 0 0 0 1 5
1756 2 5.4 -8.6 0 0 0 0 1 5
1789 2 5.2 -8.4 0 0 0 0 1 5
1790 2 5.4 -8.4 0 0 0 0 1 5
1757 2 5.6 -8.6 0 0 0 0 1 5
1791 2 5.6 -8.4 0 0 0 0 1 5
1758 2 5.8 -8.6 0 0 0 0 1 5
1792 2 5.8 -8.4 0 0 0 0 1 5
1759 2 6 -8.6 0 0 0 0 1 5
1793 2 6 -8.4 0 0 0 0 1 5
1760 2 6.2 -8.6 0 0 0 0 1 5
1761 2 6.4 -8.6 0 0 0 0 1 5
1794 2 6.2 -8.4 0 0 0 0 1 5
1795 2 6.4 -8.4 0 0 0 0 1 5
1762 2 6.6 -8.6 0 0 0 0 1 5
1763 2 6.8 -8.6 0 0 0 0 1 5
1796 2 6.6 -8.4 0 0 0 0 1 5
1797 2 6.8 -8.4 0 0 0 0 1 5
1764 2 7 -8.6 0 0 0 0 1 5
1765 2 7.2 -8.6 0 0 0 0 1 5
1798 2 7 -8.4 0 0 0 0 1 5
1799 2 7.2 -8.4 0 0 0 0 1 5
1807 2 2 -8.2 0 0 0 0 1 5
1841 2 2 -8 0 0 0 0 1 5
1808 2 2.2 -8.2 0 0 0 0 1 5
1809 2 2.4 -8.2 0 0 0 0 1 5
1842 2 2.2 -8 0 0 0 0 1 5
1843 2 2.4 -8 0 0 0 0 1 5
1810 2 2.6 -8.2 0 0 0 0 1 5
1811 2 2.8 -8.2 0 0 0 0 1 5
1844 2 2.6 -8 0 0 0 0 1 5
1845 2 2.8 -8 0 0 0 0 1 5
1812 2 3 -8.2 0 0 0 0 1 5
1846 2 3 -8 0 0 0 0 1 5
1813 2 3.2 -8.2 0 0 0 0 1 5
1847 2 3.2 -8 0 0 0 0 1 5
1814 2 3.4 -8.2 0 0 0 0 1 5
1848 2 3.4 -8 0 0 0 0 1 5
1815 2 3.6 -8.2 0 0 0 0 1 5
1849 2 3.6 -8 0 0 0 0 1 5
1816 2 3.8 -8.2 0 0 0 0 1 5
1850 2 3.8 -8 0 0 0 0 1 5
1817 2 4 -8.2 0 0 0 0 1 5
1818 2 4.2 -8.2 0 0 0 0 1 5
1851 2 4 -8 0 0 0 0 1 5
1852 2 4.2 -8 0 0 0 0 1 5
1819 2 4.4 -8.2 0 0 0 0 1 5
1820 2 4.6 -8.2 0 0 0 0 1 5
1853 2 4.4 -8 0 0 0 0 1 5
1854 2 4.6 -8 0 0 0 0 1 5
1821 2 4.8 -8.2 0 0 0 0 1 5
1822 2 5 -8.2 0 0 0 0 1 5
1855 2 4.8 -8 0 0 0 0 1 5
1856 2 5 -8 0 0 0 0 1 5
1823 2 5.2 -8.2 0 0 0 0 1 5
1824 2 5.4 -8.2 0 0 0 0 1 5
1857 2 5.2 -8 0 0 0 0 1 5
1858 2 5.4 -8 0 0 0 0 1 5
1825 2 5.6 -8.2 0 0 0 0 1 5
1859 2 5.6 -8 0 0 0 0 1 5
1826 2 5.8 -8.2 0 0 0 0 1 5
1860 2 5.8 -8 0 0 0 0 1 5
1827 2 6 -8.2 0 0 0 0 1 5
1861 2 6 -8 0 0 0 0 1 5
1828 2 6.2 -8.2 0 0 0 0 1 5
1829 2 6.4 -8.2 0 0 0 0 1 5
1862 2 6.2 -8 0 0 0 0 1 5
1863 2 6.4 -8 0 0 0 0 1 5
1830 2 6.6 -8.2 0 0 0 0 1 5
1831 2 6.8 -8.2 0 0 0 0 1 5
1864 2 6.6 -8 0 0 0 0 1 5
1865 2 6.8 -8 0 0 0 0 1 5
1832 2 7 -8.2 0 0 0 0 1 5
1833 2 7.2 -8.2 0 0 0 0 1 5
1866 2 7 -8 0 0 0 0 1 5
1867 2 7.2 -8 0 0 0 0 1 5
1875 2 2 -7.8 0 0 0 0 1 5
1909 2 2 -7.6 0 0 0 0 1 5
1943 2 2 -7.4 0 0 0 0 0.999225 5
1876 2 2.2 -7.8 0 0 0 0 1 5
1877 2 2.4 -7.8 0 0 0 0 1 5
1910 2 2.2 -7.6 0 0 0 0 1 5
1911 2 2.4 -7.6 0 0 0 0 1 5
1944 2 2.2 -7.4 0 0 0 0 0.998721 5
1945 2 2.4 -7.4 0 0 0 0 1.00202 5
1878 2 2.6 -7.8 0 0 0 0 1 5
1879 2 2.8 -7.8 0 0 0 0 1 5
1912 2 2.6 -7.6 0 0 0 0 1 5
1913 2 2.8 -7.6 0 0 0 0 1 5
1946 2 2.6 -7.4 0 0 0 0 1.00004 5
1947 2 2.8 -7.4 0 0 0 0 1.00118 5
1880 2 3 -7.8 0 0 0 0 1 5
1914 2 3 -7.6 0 0 0 0 1 5
1948 2 3 -7.4 0 0 0 0 1.00155 5
1881 2 3.2 -7.8 0 0 0 0 1 5
1915 2 3.2 -7.6 0 0 0 0 1 5
1949 2 3.2 -7.4 0 0 0 0 1.00213 5
1882 2 3.4 -7.8 0 0 0 0 1 5
1916 2 3.4 -7.6 0 0 0 0 1 5
1950 2 3.4 -7.4 0 0 0 0 0.997514 5
1883 2 3.6 -7.8 0 0 0 0 1 5
1917 2 3.6 -7.6 0 0 0 0 1 5
1951 2 3.6 -7.4 0 0 0 0 1.00103 5
1884 2 3.8 -7.8 0 0 0 0 1 5
1918 2 3.8 -7.6 0 0 0 0 1 5
1952 2 3.8 -7.4 0 0 0 0 1.01455 5
1885 2 4 -7.8 0 0 0 0 1 5
1886 2 4.2 -7.8 0 0 0 0 1 5
1919 2 4 -7.6 0 0 0 0 1 5
1920 2 4.2 -7.6 0 0 0 0 1 5
1953 2 4 -7.4 0 0 0 0 1.03008 5
1954 2 4.2 -7.4 0 0 0 0 1.03203 5
1887 2 4.4 -7.8 0 0 0 0 1 5
1888 2 4.6 -7.8 0 0 0 0 1 5
1921 2 4.4 -7.6 0 0 0 0 1 5
1922 2 4.6 -7.6 0 0 0 0 1 5
1955 2 4.4 -7.4 0 0 0 0 1.03196 5
1956 2 4.6 -7.4 0 0 0 0 1.02507 5
1889 2 4.8 -7.8 0 0 0 0 1 5
1890 2 5 -7.8 0 0 0 0 1 5
1923 2 4.8 -7.6 0 0 0 0 1 5
1924 2 5 -7.6 0 0 0 0 1 5
1957 2 4.8 -7.4 0 0 0 0 1.02448 5
1958 2 5 -7.4 0 0 0 0 1.02417 5
1891 2 5.2 -7.8 0 0 0 0 1 5
1892 2 5.4 -7.8 0 0 0 0 1 5
1925 2 5.2 -7.6 0 0 0 0 1 5
1926 2 5.4 -7.6 0 0 0 0 1 5
1959 2 5.2 -7.4 0 0 0 0 1.02415 5
1960 2 5.4 -7.4 0 0 0 0 1.02409 5
1893 2 5.6 -7.8 0 0 0 0 1 5
1927 2 5.6 -7.6 0 0 0 0 1 5
1961 2 5.6 -7.4 0 0 0 0 1.02406 5
1894 2 5.8 -7.8 0 0 0 0 1 5
1928 2 5.8 -7.6 0 0 0 0 1 5
1962 2 5.8 -7.4 0 0 0 0 1.02409 5
1895 2 6 -7.8 0 0 0 0 1 5
1929 2 6 -7.6 0 0 0 0 1 5
1963 2 6 -7.4 0 0 0 0 1.02415 5
1896 2 6.2 -7.8 0 0 0 0 1 5
1897 2 6.4 -7.8 0 0 0 0 1 5
1930 2 6.2 -7.6 0 0 0 0 1 5
1931 2 6.4 -7.6 0 0 0 0 1 5
1964 2 6.2 -7.4 0 0 0 0 1.0241 5
1965 2 6.4 -7.4 0 0 0 0 1.02415 5
1898 2 6.6 -7.8 0 0 0 0 1 5
1899 2 6.8 -7.8 0 0 0 0 1 5
1932 2 6.6 -7.6 0 0 0 0 1 5
1933 2 6.8 -7.6 0 0 0 0 1 5
1966 2 6.6 -7.4 0 0 0 0 1.02421 5
1967 2 6.8 -7.4 0 0 0 0 1.02426 5
1900 2 7 -7.8 0 0 0 0 1 5
1901 2 7.2 -7.8 0 0 0 0 1 5
1934 2 7 -7.6 0 0 0 0 1 5
1935 2 7.2 -7.6 0 0 0 0 1 5
1968 2 7 -7.4 0 0 0 0 1.02433 5
1969 2 7.2 -7.4 0 0 0 0 1.0244 5
1977 2 2 -7.2 0 0 0 0 0.999508 5
2011 2 2 -7 0 0 0 0 1.00063 5
1978 2 2.2 -7.2 0 0 0 0 0.998929 5
1979 2 2.4 -7.2 0 0 0 0 1.00013 5
2012 2 2.2 -7 0 0 0 0 0.999456 5
2013 2 2.4 -7 0 0 0 0 0.999943 5
1980 2 2.6 -7.2 0 0 0 0 0.999511 5
1981 2 2.8 -7.2 0 0 0 0 1.00043 5
2014 2 2.6 -7 0 0 0 0 0.999762 5
2015 2 2.8 -7 0 0 0 0 1.00014 5
1982 2 3 -7.2 0 0 0 0 1.00127 5
2016 2 3 -7 0 0 0 0 1.00058 5
1983 2 3.2 -7.2 0 0 0 0 1.00047 5
2017 2 3.2 -7 0 0 0 0 1.00029 5
1984 2 3.4 -7.2 0 0 0 0 0.999021 5
2018 2 3.4 -7 0 0 0 0 0.999801 5
1985 2 3.6 -7.2 0 0 0 0 1.00036 5
2019 2 3.6 -7 0 0 0 0 1.00132 5
1986 2 3.8 -7.2 0 0 0 0 1.00947 5
2020 2 3.8 -7 0 0 0 0 1.00867 5
1987 2 4 -7.2 0 0 0 0 1.02339 5
1988 2 4.2 -7.2 0 0 0 0 1.03039 5
2021 2 4 -7 0 0 0 0 1.02006 5
2022 2 4.2 -7 0 0 0 0 1.02856 5
1989 2 4.4 -7.2 0 0 0 0 1.03102 5
1990 2 4.6 -7.2 0 0 0 0 1.02585 5
2023 2 4.4 -7 0 0 0 0 1.03043 5
2024 2 4.6 -7 0 0 0 0 1.02647 5
1991 2 4.8 -7.2 0 0 0 0 1.0249 5
1992 2 5 -7.2 0 0 0 0 1.02481 5
2025 2 4.8 -7 0 0 0 0 1.02535 5
2026 2 5 -7 0 0 0 0 1.02529 5
1993 2 5.2 -7.2 0 0 0 0 1.02476 5
1994 2 5.4 -7.2 0 0 0 0 1.02454 5
2027 2 5.2 -7 0 0 0 0 1.02518 5
2028 2 5.4 -7 0 0 0 0 1.02494 5
1995 2 5.6 -7.2 0 0 0 0 1.02449 5
2029 2 5.6 -7 0 0 0 0 1.02488 5
1996 2 5.8 -7.2 0 0 0 0 1.02455 5
2030 2 5.8 -7 0 0 0 0 1.02491 5
1997 2 6 -7.2 0 0 0 0 1.0245 5
2031 2 6 -7 0 0 0 0 1.02483 5
1998 2 6.2 -7.2 0 0 0 0 1.02446 5
1999 2 6.4 -7.2 0 0 0 0 1.0245 5
2032 2 6.2 -7 0 0 0 0 1.02478 5
2033 2 6.4 -7 0 0 0 0 1.02481 5
2000 2 6.6 -7.2 0 0 0 0 1.02454 5
2001 2 6.8 -7.2 0 0 0 0 1.02457 5
2034 2 6.6 -7 0 0 0 0 1.02483 5
2035 2 6.8 -7 0 0 0 0 1.02486 5
2002 2 7 -7.2 0 0 0 0 1.02463 5
2003 2 7.2 -7.2 0 0 0 0 1.02469 5
2036 2 7 -7 0 0 0 0 1.02491 5
2037 2 7.2 -7 0 0 0 0 1.02495 5
12133 1 1.62318 -6.58073 0.02 0 -9.51205e-06 -6.08376e-06 1 2
12132 1 1.81134 -6.76992 0.02 0 -0.00459209 -0.00173636 1 2
12134 1 1.83438 -6.58688 0.02 0 -7.71164e-05 0.000346103 1 2
12135 1 2.03028 -6.75274 0.02 0 -0.00282692 -0.000322369 1 2
12137 1 2.03801 -6.56746 0.02 0 0.000221883 0.000575266 1 2
12136 1 2.2396 -6.73947 0.02 0 -0.00256363 -0.000424446 1 2
12138 1 2.23634 -6.55685 0.02 0 0.00020231 0.000382426 1 2
12287 1 2.43809 -6.74787 0.02 0 -0.00291093 -0.000420371 1 2
12289 1 2.4365 -6.55697 0.02 0 0.00021692 0.000380433 1 2
12288 1 2.63089 -6.7403 0.02 0 -0.00257247 -0.000431356 1 2
12290 1 2.63991 -6.5555 0.02 0 0.000181749 0.00040364 1 2
12291 1 2.82488 -6.74105 0.02 0 -0.00272783 -0.000529044 1 2
12293 1 2.85064 -6.56028 0.02 0 0.000155853 0.000485874 1 2
12292 1 3.02568 -6.75011 0.02 0 -0.00282826 -0.00057079 1 2
12294 1 3.05906 -6.56898 0.02 0 0.000116901 0.000514645 1 2
12295 1 3.23839 -6.76334 0.02 0 -0.00305017 -0.000451664 1 2
12297 1 3.25347 -6.56817 0.02 0 7.62839e-05 0.000374283 1 2
11883 1 3.63683 -6.55135 0.02 0 -0.000310508 0.000460513 1 2
11880 1 3.63987 -6.74606 0.02 0 -0.0035119 -0.000117645 1 2
12296 1 3.44217 -6.74804 0.02 0 -0.00262462 -0.000335668 1 2
12298 1 3.44536 -6.56085 0.02 0 0.000128899 0.00034941 1 2
11884 1 3.8198 -6.54387 0.02 0 -0.00263861 0.000803523 1 2
11881 1 3.83191 -6.74071 0.02 0 -0.00706287 2.7564e-05 1 2
11882 1 3.9998 -6.75059 0.02 0 -0.0109428 0.000870454 1.015 2
11885 1 3.99639 -6.52885 0.02 0 -0.00660984 0.00215162 1 2
11888 1 4.0598 -6.55731 0.0120868 0.00245645 0.000120856 4.21136e-05 1.02658 0
11886 1 4.03974 -6.67067 0.00966295 0.00269003 0.000317579 0.000349722 1.02553 0
11887 1 4.09934 -6.81268 0.00441787 -0.000158004 0.000471836 -2.18455e-05 1.03545 0
11889 1 4.16812 -6.4605 0.0104042 0.00295797 4.19147e-05 -1.80539e-05 1.03172 0
11892 1 4.33579 -6.43288 0.0108071 0.00280726 3.47034e-05 -1.38616e-06 1.03076 0
11890 1 4.27621 -6.60176 0.00865695 0.00253882 0.000110168 7.25607e-05 1.03215 0
11891 1 4.27855 -6.77665 0.00481161 0.000472377 0.000177465 3.80139e-05 1.03455 0
11893 1 4.45396 -6.51902 0.0106393 0.0019971 1.74186e-05 1.11496e-05 1.02772 0
11894 1 4.43183 -6.69598 0.00683527 0.000962922 3.6878e-05 1.17831e-05 1.02803 0
11895 1 4.58537 -6.63859 0.00778685 0.0011086 1.10499e-05 3.07794e-06 1.02562 0
11898 1 4.73499 -6.56501 0.00857284 0.00128719 9.10046e-06 5.97687e-06 1.02539 0
11544 1 4.62451 -6.78613 0.0041866 0.000223043 7.31822e-06 -1.09452e-06 1.02619 0
11547 1 4.85687 -6.63189 0.00639733 0.000756685 3.87118e-06 3.74675e-06 1.02527 0
11551 1 5.04117 -6.53323 0.00752138 0.000947201 -4.55046e-06 5.15213e-06 1.02535 0
11552 1 4.82939 -6.79097 0.00319145 -3.26807e-05 2.61616e-06 1.3104e-06 1.02624 0
11559 1 5.02349 -6.67359 0.00477849 0.000410516 -2.21663e-06 3.4417e-06 1.02525 0
11556 1 5.30361 -6.55046 0.00632118 0.000638962 -7.29665e-06 4.58985e-06 1.025 0
11164 1 5.10314 -6.79448 0.00249584 -0.000213145 -2.21908e-06 2.54632e-06 1.0261 0
11560 1 5.44344 -6.54854 0.00598272 0.000556201 -6.76969e-06 3.99637e-06 1.02488 0
11172 1 5.24919 -6.70276 0.00372038 0.00015368 -4.77119e-06 3.24832e-06 1.0252 0
11162 1 5.58635 -6.55434 0.00553963 0.00046955 -5.35374e-06 3.53806e-06 1.02476 0
11323 1 5.39535 -6.74748 0.00276269 -9.70721e-05 -3.55103e-06 2.54955e-06 1.02546 0
10850 1 5.55127 -6.74916 0.00248465 -0.000126425 -2.66253e-06 2.0834e-06 1.02537 0
10857 1 5.71857 -6.64778 0.00378793 0.000229447 -2.48312e-06 2.20604e-06 1.02469 0
11322 1 5.88204 -6.54806 0.00504827 0.000393145 -2.68018e-06 2.72257e-06 1.0246 0
10507 1 5.76685 -6.78972 0.00184072 -0.000230248 -6.57934e-07 1.01141e-06 1.02549 0
10846 1 6.00966 -6.59238 0.00419041 0.000273436 -1.58943e-06 2.04223e-06 1.02454 0
10519 1 5.9538 -6.76014 0.00202121 -0.000135412 -1.87958e-07 7.92833e-07 1.02523 0
10862 1 6.15866 -6.59313 0.00399744 0.000247716 -1.65169e-06 1.94759e-06 1.0245 0
10189 1 6.14278 -6.76771 0.00179947 -0.000175162 -5.15113e-08 4.98721e-07 1.02521 0
10511 1 6.30977 -6.59908 0.00374679 0.000216304 -2.43941e-06 1.96193e-06 1.02448 0
10503 1 6.46211 -6.59844 0.00361605 0.000191053 -3.64217e-06 2.13494e-06 1.02448 0
3109 1 6.34117 -6.77632 0.00162636 -0.000198374 -6.1452e-07 6.15285e-07 1.02525 0
10174 1 6.61916 -6.60362 0.00344424 0.0001666 -5.14424e-06 2.44287e-06 1.02448 0
3113 1 6.54588 -6.77421 0.00156785 -0.000197929 -1.81923e-06 9.67485e-07 1.02525 0
10178 1 6.78202 -6.59281 0.00349244 0.000161393 -6.78995e-06 2.87103e-06 1.02449 0
3101 1 6.94528 -6.59157 0.00344008 0.00014162 -8.01963e-06 3.21978e-06 1.02451 0
3116 1 6.74921 -6.76908 0.00155309 -0.00019464 -3.16036e-06 1.4203e-06 1.02523 0
3117 1 6.94554 -6.76407 0.00155908 -0.000193732 -4.31341e-06 1.81171e-06 1.02525 0
3103 1 7.11478 -6.58976 0.00342031 0.000117087 -8.95907e-06 3.52438e-06 1.02454 0
3105 1 7.28536 -6.57825 0.00354675 8.51836e-05 -9.67481e-06 3.86695e-06 1.02456 0
3118 1 7.13588 -6.76263 0.00155065 -0.000210234 -5.07028e-06 2.11297e-06 1.02532 0
3119 1 7.32329 -6.75154 0.00164958 -0.000209403 -5.69121e-06 2.43917e-06 1.02531 0
12139 1 1.6587 -6.40681 0.02 0 6.10942e-06 3.07627e-06 1 2
12140 1 1.68518 -6.22242 0.02 0 8.72153e-07 7.36881e-07 1 2
12141 1 1.86334 -6.40373 0.02 0 2.21646e-05 0.000107571 1 2
12142 1 1.89303 -6.21248 0.02 0 1.69809e-06 8.1318e-06 1 2
12143 1 2.0666 -6.37967 0.02 0 6.83113e-05 0.000146979 1 2
12144 1 2.10528 -6.19565 0.02 0 4.31623e-06 1.46928e-05 1 2
12302 1 2.32365 -6.19087 0.02 0 6.94771e-06 1.76888e-05 1 2
12303 1 2.27236 -6.37223 0.02 0 8.84647e-05 0.000154763 1 2
12299 1 2.47787 -6.36827 0.02 0 8.87726e-05 0.000152654 1 2
12300 1 2.68363 -6.37473 0.02 0 8.70741e-05 0.000160741 1 2
12301 1 2.53921 -6.18388 0.02 0 6.06006e-06 1.46755e-05 1 2
12304 1 2.74465 -6.19169 0.02 0 6.66345e-06 1.6265e-05 1 2
12305 1 2.88975 -6.37712 0.02 0 8.88847e-05 0.000168684 1 2
12307 1 2.93987 -6.18031 0.02 0 4.99124e-06 1.32798e-05 1 2
12306 1 3.08653 -6.38113 0.02 0 9.19223e-05 0.000163794 1 2
12308 1 3.12967 -6.18345 0.02 0 5.15848e-06 1.37396e-05 1 2
12309 1 3.28051 -6.37127 0.02 0 8.41965e-05 0.000136822 1 2
12311 1 3.31815 -6.17064 0.02 0 4.3061e-06 1.14022e-05 1 2
11901 1 3.67339 -6.12486 0.02 0 -0.000873764 -5.705e-05 1 2
11902 1 3.65072 -6.34641 0.02 0 -0.000471531 4.49015e-05 1 2
12310 1 3.46904 -6.36378 0.02 0 6.63062e-05 0.000120654 1 2
12312 1 3.49986 -6.14857 0.02 0 -4.42979e-05 4.06097e-06 1 2
11903 1 3.82608 -6.3224 0.02 0 -0.00267995 -5.01376e-05 1 2
11904 1 4.00005 -6.31412 0.0186277 0.000191233 -0.00548923 0.000764933 1.00154 0
11905 1 4.00014 -6.10878 0.0186624 -5.29672e-05 -0.00535056 -0.000211869 1.01339 0
11906 1 4.01976 -6.33507 0.0126068 0.000389243 0.000281538 -0.000158773 1.02061 0
11908 1 4.00753 -6.07566 0.0124647 0.000169706 0.000186738 6.61321e-05 1.02082 0
11907 1 4.23204 -6.30349 0.0106791 0.00249575 0.000121746 -2.17382e-05 1.03163 0
11909 1 4.30687 -6.0718 0.0124148 0.00233418 0.000134171 2.17489e-05 1.02951 0
11910 1 4.38193 -6.248 0.0126002 0.00286064 5.20078e-05 6.33766e-06 1.02878 0
11912 1 4.16689 -6.17118 0.0111939 0.00135096 0.000262993 -2.77908e-05 1.02988 0
11911 1 4.52583 -6.3093 0.0128387 0.00258608 1.1075e-05 1.05573e-05 1.02635 0
11913 1 4.47196 -6.10663 0.0139754 0.00288648 2.61945e-05 1.19825e-05 1.02648 0
11896 1 4.60047 -6.45989 0.0110453 0.00199768 1.15082e-05 9.40985e-06 1.02588 0
11897 1 4.74016 -6.37827 0.0113327 0.00209097 6.96917e-06 8.87792e-06 1.02564 0
11899 1 4.91066 -6.45434 0.0094159 0.00147375 -4.63112e-07 6.38131e-06 1.02561 0
11914 1 4.66176 -6.22239 0.0131092 0.00272805 9.28656e-06 1.04908e-05 1.02557 0
11916 1 4.62718 -6.05814 0.014186 0.00306214 1.1937e-05 1.05965e-05 1.02538 0
11915 1 4.80846 -6.14488 0.0131104 0.00278966 2.75877e-06 8.35018e-06 1.02561 0
11900 1 4.88207 -6.29389 0.0115286 0.00217033 -7.46955e-07 7.6095e-06 1.02574 0
11919 1 4.96443 -6.08923 0.0129234 0.00276445 -4.58879e-06 6.36223e-06 1.02568 0
11545 1 5.03728 -6.23711 0.0114337 0.00210571 -7.12977e-06 6.19999e-06 1.02572 0
11563 1 5.131 -6.07623 0.0124853 0.00253932 -9.42448e-06 5.30343e-06 1.02555 0
11546 1 5.11452 -6.35917 0.00977017 0.00150693 -8.17629e-06 5.72143e-06 1.02557 0
11548 1 5.1968 -6.47854 0.00782027 0.000971448 -8.04351e-06 4.9568e-06 1.02526 0
11549 1 5.24013 -6.23072 0.0107613 0.00178836 -1.05199e-05 5.21061e-06 1.02547 0
11565 1 5.28905 -6.0562 0.012168 0.0023461 -1.10881e-05 5.02735e-06 1.02535 0
11550 1 5.42274 -6.14267 0.0110182 0.00183862 -1.07022e-05 4.99425e-06 1.02523 0
11553 1 5.35379 -6.33655 0.00918016 0.00126394 -9.87003e-06 5.00306e-06 1.02526 0
11554 1 5.4984 -6.36541 0.00836787 0.00102582 -8.65262e-06 4.67289e-06 1.02505 0
11570 1 5.57161 -6.18032 0.0101971 0.00150465 -9.5195e-06 5.22643e-06 1.02509 0
11555 1 5.65048 -6.33984 0.00823592 0.000962213 -7.34908e-06 4.51103e-06 1.02495 0
11557 1 5.71886 -6.10497 0.0104905 0.00155068 -8.66773e-06 5.83419e-06 1.02499 0
11167 1 5.74209 -6.47405 0.00633044 0.000589788 -4.79922e-06 3.60524e-06 1.02473 0
11558 1 5.88354 -6.04986 0.010561 0.00149699 -8.0715e-06 6.71029e-06 1.02489 0
11561 1 5.79595 -6.25054 0.00884451 0.00106857 -6.91381e-06 5.04589e-06 1.02492 0
11562 1 5.97505 -6.17707 0.00916173 0.0010803 -6.79345e-06 5.86341e-06 1.02486 0
11163 1 5.90046 -6.37175 0.00724274 0.000717929 -4.89404e-06 4.18547e-06 1.02478 0
11161 1 6.1347 -6.13984 0.00918539 0.00101344 -7.31064e-06 6.42518e-06 1.0248 0
11168 1 6.05265 -6.33361 0.00735713 0.000697497 -5.009e-06 4.5198e-06 1.02475 0
10845 1 6.16363 -6.43094 0.00604608 0.000482172 -4.00092e-06 3.6266e-06 1.0246 0
11166 1 6.24191 -6.2529 0.00786684 0.000718473 -6.67815e-06 5.52394e-06 1.02474 0
11171 1 6.40607 -6.22818 0.0078596 0.000648569 -8.32622e-06 6.00528e-06 1.0247 0
11324 1 6.33155 -6.41503 0.00597974 0.000439731 -5.25689e-06 3.96391e-06 1.02457 0
11174 1 6.55576 -6.13263 0.00858332 0.000681694 -1.08199e-05 7.05846e-06 1.0247 0
10849 1 6.4889 -6.40511 0.00589831 0.000392428 -6.91709e-06 4.30296e-06 1.02455 0
11326 1 6.62333 -6.26644 0.00720743 0.000477853 -1.0187e-05 5.95865e-06 1.02465 0
10854 1 6.64935 -6.43419 0.00542759 0.000316689 -8.23948e-06 4.32082e-06 1.02451 0
10847 1 6.77567 -6.21612 0.00756218 0.00044908 -1.22561e-05 6.56362e-06 1.02466 0
10502 1 6.80908 -6.40492 0.00562654 0.000291948 -1.02738e-05 4.8947e-06 1.02454 0
10853 1 6.93586 -6.21841 0.00742658 0.0003652 -1.35331e-05 6.64723e-06 1.02466 0
10861 1 6.96479 -6.41112 0.00547697 0.000243394 -1.14707e-05 5.06968e-06 1.02454 0
10852 1 7.08964 -6.22296 0.00730468 0.00028555 -1.42997e-05 6.64291e-06 1.02466 0
10504 1 7.12187 -6.40949 0.00543771 0.000196414 -1.22934e-05 5.23058e-06 1.02454 0
10858 1 7.24452 -6.20937 0.00738179 0.000213182 -1.46558e-05 6.7055e-06 1.02466 0
11403 1 5.53645 -0.226457 0.0138966 0.000262757 1.68814e-05 -1.51089e-05 1.02493 0
10512 1 7.28034 -6.4017 0.00548619 0.000143674 -1.26452e-05 5.39006e-06 1.02455 0
11049 1 7.26897 -0.198593 0.0138 -3.68497e-05 1.66814e-05 -7.10304e-06 1.02441 0
12145 1 1.72059 -6.03472 0.02 0 1.50086e-08 1.87277e-08 1 2
12146 1 1.75647 -5.84117 0.02 0 1.08447e-13 1.37524e-13 1 2
12147 1 1.92647 -6.01924 0.02 0 2.23717e-08 1.19826e-07 1 2
12148 1 1.9512 -5.81749 0.02 0 3.78497e-11 2.08724e-10 1 2
12149 1 2.13657 -6.01437 0.02 0 5.88297e-08 2.74369e-07 1 2
12150 1 2.14536 -5.82674 0.02 0 8.03593e-11 5.02072e-10 1 2
12315 1 2.34843 -6.00636 0.02 0 6.05264e-08 2.4396e-07 1 2
12316 1 2.34073 -5.81326 0.02 0 4.01529e-11 2.06416e-10 1 2
12313 1 2.55047 -5.99117 0.02 0 3.0739e-08 1.27519e-07 1 2
12314 1 2.53565 -5.79328 0.02 0 1.08885e-11 6.90332e-11 1 2
12317 1 2.7306 -5.79598 0.02 0 1.31571e-11 8.49513e-11 1 2
12318 1 2.74717 -5.99602 0.02 0 3.5796e-08 1.56711e-07 1 2
12321 1 2.92484 -5.76887 0.02 0 2.15975e-12 1.84259e-11 1 2
12319 1 2.93794 -5.97428 0.02 0 1.30613e-08 6.23729e-08 1 2
12320 1 3.12606 -5.97736 0.02 0 1.29055e-08 5.91571e-08 1 2
12322 1 3.11729 -5.76878 0.02 0 2.56585e-12 1.90821e-11 1 2
12323 1 3.31393 -5.96884 0.02 0 9.77944e-09 4.02194e-08 1 2
12325 1 3.3105 -5.76381 0.02 0 -1.26007e-11 -2.54007e-11 1 2
11922 1 3.66521 -5.88435 0.02 0 -0.000698232 6.07896e-05 1 2
11925 1 3.67153 -5.65275 0.02 0 -0.000630564 2.11257e-06 1 2
12324 1 3.49391 -5.92677 0.02 0 -3.45406e-05 2.64927e-06 1 2
12326 1 3.49228 -5.69996 0.02 0 -2.54263e-05 -3.84896e-07 1 2
11921 1 3.84058 -6.08372 0.02 0 -0.00325963 -0.000179086 1 2
11923 1 3.84154 -5.86482 0.02 0 -0.00285555 0.000157851 1 2
11924 1 3.99992 -5.88115 0.02 0 -0.00540405 0.000204716 1.01237 2
11926 1 3.8604 -5.65753 0.02 0 -0.00291118 -1.95945e-05 1 2
11927 1 3.99984 -5.67264 0.02 0 -0.00475773 0.000180264 1.01729 2
11928 1 4.08335 -5.91331 0.0131367 2.85109e-05 0.000389726 -5.3124e-05 1.02541 0
11930 1 4.12387 -5.72274 0.0136541 0.000510549 0.00029348 3.55925e-05 1.02722 0
11929 1 4.2301 -5.92439 0.0126252 0.0014067 0.000211549 2.67169e-05 1.02946 0
11931 1 4.26859 -5.74089 0.0139004 0.00167523 0.000134186 4.56276e-05 1.02852 0
11932 1 4.38979 -5.89774 0.014368 0.00259296 7.07894e-05 1.94385e-05 1.02713 0
11934 1 4.41844 -5.70676 0.0152741 0.00266899 3.6059e-05 2.11633e-05 1.02616 0
11933 1 4.53927 -5.9183 0.0148296 0.00306482 1.70981e-05 1.35881e-05 1.02542 0
11935 1 4.5679 -5.72691 0.0154017 0.00322189 1.53157e-05 1.26931e-05 1.02508 0
11917 1 4.77617 -5.9777 0.0141781 0.00322299 5.74414e-06 7.84944e-06 1.02541 0
11918 1 4.9389 -5.92732 0.0139535 0.00324862 -2.3459e-06 5.81746e-06 1.02554 0
11936 1 4.69027 -5.83357 0.0149404 0.00338856 1.09859e-05 9.6962e-06 1.02515 0
11938 1 4.71983 -5.63239 0.0154228 0.00364051 1.05929e-05 8.89037e-06 1.02503 0
11937 1 4.84722 -5.78427 0.0147652 0.00356291 3.71207e-06 6.57731e-06 1.02535 0
11939 1 4.88333 -5.61537 0.0151631 0.00382209 3.3177e-06 6.7727e-06 1.02524 0
11940 1 5.01913 -5.73993 0.0145571 0.00359219 -3.69045e-06 5.51016e-06 1.02539 0
11920 1 5.09594 -5.89617 0.0137147 0.0031481 -7.77375e-06 5.11781e-06 1.02546 0
11564 1 5.24528 -5.87696 0.0134712 0.00297208 -9.9538e-06 5.22083e-06 1.02529 0
11941 1 5.18029 -5.68851 0.0144685 0.00352015 -7.31195e-06 6.01356e-06 1.02522 0
11566 1 5.40715 -5.92506 0.0127758 0.00257026 -1.07611e-05 5.49427e-06 1.02516 0
11568 1 5.34708 -5.73941 0.0139523 0.00315859 -9.74253e-06 6.28478e-06 1.0251 0
11567 1 5.55112 -5.98804 0.0119364 0.00214303 -1.03566e-05 5.89693e-06 1.02507 0
11569 1 5.51847 -5.7849 0.0133511 0.00276062 -1.02685e-05 6.88428e-06 1.025 0
11584 1 5.46534 -5.60927 0.0142928 0.00323968 -9.54767e-06 8.13039e-06 1.02494 0
11572 1 5.67164 -5.75543 0.013181 0.0025613 -9.75708e-06 7.81386e-06 1.0249 0
11571 1 5.69833 -5.93201 0.0119696 0.00207328 -9.50027e-06 6.82709e-06 1.02495 0
11573 1 5.81404 -5.68282 0.0132989 0.0024751 -9.40322e-06 8.73551e-06 1.0248 0
11574 1 5.84307 -5.86839 0.0120823 0.00201483 -9.02124e-06 7.76104e-06 1.02486 0
11575 1 5.99918 -5.89862 0.0115249 0.00171206 -8.71861e-06 7.98589e-06 1.0248 0
11576 1 5.97849 -5.71635 0.012799 0.00213316 -9.32079e-06 8.8531e-06 1.02475 0
11578 1 6.12046 -5.98088 0.010627 0.00137098 -8.52596e-06 7.68322e-06 1.02477 0
11577 1 6.13477 -5.7491 0.0123156 0.00182475 -9.6826e-06 8.83972e-06 1.02471 0
11579 1 6.25529 -5.86954 0.0112611 0.00143021 -9.89189e-06 8.44437e-06 1.0247 0
11580 1 6.2817 -5.66949 0.0125962 0.00174477 -1.08562e-05 9.05563e-06 1.02464 0
11169 1 6.44686 -6.01667 0.00977225 0.00095224 -1.06208e-05 7.82805e-06 1.0247 0
11165 1 6.2949 -6.04896 0.00972579 0.00104133 -9.04466e-06 7.42258e-06 1.02474 0
11176 1 6.40978 -5.81665 0.0114182 0.00132893 -1.14175e-05 8.70409e-06 1.02465 0
11581 1 6.4401 -5.61836 0.0127081 0.00159024 -1.23171e-05 9.01843e-06 1.0246 0
11177 1 6.56267 -5.88806 0.0106789 0.00104071 -1.25438e-05 8.40734e-06 1.02465 0
11175 1 6.57389 -5.70071 0.0120297 0.00129256 -1.3334e-05 8.83297e-06 1.0246 0
11325 1 6.83999 -6.0504 0.00904241 0.000575833 -1.41486e-05 7.69401e-06 1.02467 0
11178 1 6.71613 -5.79853 0.0111979 0.000996743 -1.43315e-05 8.58436e-06 1.02462 0
11170 1 6.6812 -6.00851 0.00955335 0.000754115 -1.30313e-05 7.92969e-06 1.02467 0
11181 1 6.86711 -5.69279 0.0118318 0.000945621 -1.56791e-05 8.6177e-06 1.02459 0
11173 1 6.85936 -5.88013 0.0104523 0.000752863 -1.51493e-05 8.3035e-06 1.02463 0
11182 1 7.03889 -5.68386 0.0117949 0.000760504 -1.64527e-05 8.53486e-06 1.02459 0
11186 1 7.02607 -5.85952 0.0105057 0.000618917 -1.60804e-05 8.26135e-06 1.02463 0
11327 1 7.01591 -6.03746 0.00903643 0.000461189 -1.53105e-05 7.70007e-06 1.02467 0
10848 1 7.19001 -6.03387 0.00898566 0.000342539 -1.57462e-05 7.59514e-06 1.02467 0
11185 1 7.21013 -5.69056 0.0116823 0.000574538 -1.65292e-05 8.47028e-06 1.0246 0
11328 1 7.19539 -5.85982 0.0104257 0.000468374 -1.63429e-05 8.13938e-06 1.02464 0
11406 1 5.51239 -0.398346 0.0139529 0.000383968 1.79011e-05 -1.69035e-05 1.02488 0
11736 1 4.56398 -0.0736822 0.0136243 0.00031089 1.29718e-05 -7.04922e-06 1.02461 0
11746 1 3.99188 -0.00100826 0.02 0 -0.00546481 -0.000214428 1 2
12151 1 1.75449 -5.6389 0.02 0 0 0 1 2
12152 1 1.74916 -5.43396 0.02 0 0 0 1 2
12153 1 1.7882 -5.23189 0.02 0 0 0 1 2
12154 1 1.95174 -5.61599 0.02 0 0 0 1 2
12155 1 1.94715 -5.4168 0.02 0 0 0 1 2
12159 1 1.98449 -5.21823 0.02 0 0 0 1 2
12156 1 2.15636 -5.63481 0.02 0 0 0 1 2
12157 1 2.14697 -5.4444 0.02 0 0 0 1 2
12158 1 2.17913 -5.25215 0.02 0 0 0 1 2
12329 1 2.35207 -5.42149 0.02 0 0 0 1 2
12330 1 2.36181 -5.61669 0.02 0 0 0 1 2
12331 1 2.37407 -5.21784 0.02 0 0 0 1 2
12327 1 2.56049 -5.5913 0.02 0 0 0 1 2
12328 1 2.55126 -5.38986 0.02 0 0 0 1 2
12332 1 2.75594 -5.59471 0.02 0 0 0 1 2
12333 1 2.74998 -5.39389 0.02 0 0 0 1 2
12334 1 2.94524 -5.55776 0.02 0 0 0 1 2
12336 1 2.94346 -5.34795 0.02 0 0 0 1 2
12335 1 3.13045 -5.55592 0.02 0 0 0 1 2