ITEM: TIMESTEP
76000
ITEM: NUMBER OF ATOMS
13159
ITEM: BOX BOUNDS ff ff pp
0.0000000000000000e+00 2.2000000000000000e+01
-1.0000000000000000e+01 1.0000000000000000e+01
-2.0000000000000000e-02 2.0000000000000000e-02
ITEM: ATOMS id type x y vx vy fx fy c_den c_phase
1501 2 2 -10 0 0 0 0 1 5
1535 2 2 -9.8 0 0 0 0 1 5
1569 2 2 -9.6 0 0 0 0 1 5
1502 2 2.2 -10 0 0 0 0 1 5
1503 2 2.4 -10 0 0 0 0 1 5
1536 2 2.2 -9.8 0 0 0 0 1 5
1537 2 2.4 -9.8 0 0 0 0 1 5
1570 2 2.2 -9.6 0 0 0 0 1 5
1571 2 2.4 -9.6 0 0 0 0 1 5
1504 2 2.6 -10 0 0 0 0 1 5
1505 2 2.8 -10 0 0 0 0 1 5
1538 2 2.6 -9.8 0 0 0 0 1 5
1539 2 2.8 -9.8 0 0 0 0 1 5
1572 2 2.6 -9.6 0 0 0 0 1 5
1573 2 2.8 -9.6 0 0 0 0 1 5
1506 2 3 -10 0 0 0 0 1 5
1540 2 3 -9.8 0 0 0 0 1 5
1574 2 3 -9.6 0 0 0 0 1 5
1507 2 3.2 -10 0 0 0 0 1 5
1541 2 3.2 -9.8 0 0 0 0 1 5
1575 2 3.2 -9.6 0 0 0 0 1 5
1508 2 3.4 -10 0 0 0 0 1 5
1542 2 3.4 -9.8 0 0 0 0 1 5
1576 2 3.4 -9.6 0 0 0 0 1 5
1509 2 3.6 -10 0 0 0 0 1 5
1543 2 3.6 -9.8 0 0 0 0 1 5
1577 2 3.6 -9.6 0 0 0 0 1 5
1510 2 3.8 -10 0 0 0 0 1 5
1544 2 3.8 -9.8 0 0 0 0 1 5
1578 2 3.8 -9.6 0 0 0 0 1 5
1511 2 4 -10 0 0 0 0 1 5
1512 2 4.2 -10 0 0 0 0 1 5
1545 2 4 -9.8 0 0 0 0 1 5
1546 2 4.2 -9.8 0 0 0 0 1 5
1579 2 4 -9.6 0 0 0 0 1 5
1580 2 4.2 -9.6 0 0 0 0 1 5
1513 2 4.4 -10 0 0 0 0 1 5
1514 2 4.6 -10 0 0 0 0 1 5
1547 2 4.4 -9.8 0 0 0 0 1 5
1548 2 4.6 -9.8 0 0 0 0 1 5
1581 2 4.4 -9.6 0 0 0 0 1 5
1582 2 4.6 -9.6 0 0 0 0 1 5
1515 2 4.8 -10 0 0 0 0 1 5
1516 2 5 -10 0 0 0 0 1 5
1549 2 4.8 -9.8 0 0 0 0 1 5
1550 2 5 -9.8 0 0 0 0 1 5
1583 2 4.8 -9.6 0 0 0 0 1 5
1584 2 5 -9.6 0 0 0 0 1 5
1517 2 5.2 -10 0 0 0 0 1 5
1518 2 5.4 -10 0 0 0 0 1 5
1551 2 5.2 -9.8 0 0 0 0 1 5
1552 2 5.4 -9.8 0 0 0 0 1 5
1585 2 5.2 -9.6 0 0 0 0 1 5
1586 2 5.4 -9.6 0 0 0 0 1 5
1519 2 5.6 -10 0 0 0 0 1 5
1553 2 5.6 -9.8 0 0 0 0 1 5
1587 2 5.6 -9.6 0 0 0 0 1 5
1520 2 5.8 -10 0 0 0 0 1 5
1554 2 5.8 -9.8 0 0 0 0 1 5
1588 2 5.8 -9.6 0 0 0 0 1 5
1521 2 6 -10 0 0 0 0 1 5
1555 2 6 -9.8 0 0 0 0 1 5
1589 2 6 -9.6 0 0 0 0 1 5
1522 2 6.2 -10 0 0 0 0 1 5
1523 2 6.4 -10 0 0 0 0 1 5
1556 2 6.2 -9.8 0 0 0 0 1 5
1557 2 6.4 -9.8 0 0 0 0 1 5
1590 2 6.2 -9.6 0 0 0 0 1 5
1591 2 6.4 -9.6 0 0 0 0 1 5
1524 2 6.6 -10 0 0 0 0 1 5
1525 2 6.8 -10 0 0 0 0 1 5
1558 2 6.6 -9.8 0 0 0 0 1 5
1559 2 6.8 -9.8 0 0 0 0 1 5
1592 2 6.6 -9.6 0 0 0 0 1 5
1593 2 6.8 -9.6 0 0 0 0 1 5
1526 2 7 -10 0 0 0 0 1 5
1527 2 7.2 -10 0 0 0 0 1 5
1560 2 7 -9.8 0 0 0 0 1 5
1561 2 7.2 -9.8 0 0 0 0 1 5
1594 2 7 -9.6 0 0 0 0 1 5
1595 2 7.2 -9.6 0 0 0 0 1 5
1603 2 2 -9.4 0 0 0 0 1 5
1637 2 2 -9.2 0 0 0 0 1 5
1604 2 2.2 -9.4 0 0 0 0 1 5
1605 2 2.4 -9.4 0 0 0 0 1 5
1638 2 2.2 -9.2 0 0 0 0 1 5
1639 2 2.4 -9.2 0 0 0 0 1 5
1606 2 2.6 -9.4 0 0 0 0 1 5
1607 2 2.8 -9.4 0 0 0 0 1 5
1640 2 2.6 -9.2 0 0 0 0 1 5
1641 2 2.8 -9.2 0 0 0 0 1 5
1608 2 3 -9.4 0 0 0 0 1 5
1642 2 3 -9.2 0 0 0 0 1 5
1609 2 3.2 -9.4 0 0 0 0 1 5
1643 2 3.2 -9.2 0 0 0 0 1 5
1610 2 3.4 -9.4 0 0 0 0 1 5
1644 2 3.4 -9.2 0 0 0 0 1 5
1611 2 3.6 -9.4 0 0 0 0 1 5
1645 2 3.6 -9.2 0 0 0 0 1 5
1612 2 3.8 -9.4 0 0 0 0 1 5
1646 2 3.8 -9.2 0 0 0 0 1 5
1613 2 4 -9.4 0 0 0 0 1 5
1614 2 4.2 -9.4 0 0 0 0 1 5
1647 2 4 -9.2 0 0 0 0 1 5
1648 2 4.2 -9.2 0 0 0 0 1 5
1615 2 4.4 -9.4 0 0 0 0 1 5
1616 2 4.6 -9.4 0 0 0 0 1 5
1649 2 4.4 -9.2 0 0 0 0 1 5
1650 2 4.6 -9.2 0 0 0 0 1 5
1617 2 4.8 -9.4 0 0 0 0 1 5
1618 2 5 -9.4 0 0 0 0 1 5
1651 2 4.8 -9.2 0 0 0 0 1 5
1652 2 5 -9.2 0 0 0 0 1 5
1619 2 5.2 -9.4 0 0 0 0 1 5
1620 2 5.4 -9.4 0 0 0 0 1 5
1653 2 5.2 -9.2 0 0 0 0 1 5
1654 2 5.4 -9.2 0 0 0 0 1 5
1621 2 5.6 -9.4 0 0 0 0 1 5
1655 2 5.6 -9.2 0 0 0 0 1 5
1622 2 5.8 -9.4 0 0 0 0 1 5
1656 2 5.8 -9.2 0 0 0 0 1 5
1623 2 6 -9.4 0 0 0 0 1 5
1657 2 6 -9.2 0 0 0 0 1 5
1624 2 6.2 -9.4 0 0 0 0 1 5
1625 2 6.4 -9.4 0 0 0 0 1 5
1658 2 6.2 -9.2 0 0 0 0 1 5
1659 2 6.4 -9.2 0 0 0 0 1 5
1626 2 6.6 -9.4 0 0 0 0 1 5
1627 2 6.8 -9.4 0 0 0 0 1 5
1660 2 6.6 -9.2 0 0 0 0 1 5
1661 2 6.8 -9.2 0 0 0 0 1 5
1628 2 7 -9.4 0 0 0 0 1 5
1629 2 7.2 -9.4 0 0 0 0 1 5
1662 2 7 -9.2 0 0 0 0 1 5
1663 2 7.2 -9.2 0 0 0 0 1 5
1671 2 2 -9 0 0 0 0 1 5
1705 2 2 -8.8 0 0 0 0 1 5
1672 2 2.2 -9 0 0 0 0 1 5
1673 2 2.4 -9 0 0 0 0 1 5
1706 2 2.2 -8.8 0 0 0 0 1 5
1707 2 2.4 -8.8 0 0 0 0 1 5
1674 2 2.6 -9 0 0 0 0 1 5
1675 2 2.8 -9 0 0 0 0 1 5
1708 2 2.6 -8.8 0 0 0 0 1 5
1709 2 2.8 -8.8 0 0 0 0 1 5
1676 2 3 -9 0 0 0 0 1 5
1710 2 3 -8.8 0 0 0 0 1 5
1677 2 3.2 -9 0 0 0 0 1 5
1711 2 3.2 -8.8 0 0 0 0 1 5
1678 2 3.4 -9 0 0 0 0 1 5
1712 2 3.4 -8.8 0 0 0 0 1 5
1679 2 3.6 -9 0 0 0 0 1 5
1713 2 3.6 -8.8 0 0 0 0 1 5
1680 2 3.8 -9 0 0 0 0 1 5
1714 2 3.8 -8.8 0 0 0 0 1 5
1681 2 4 -9 0 0 0 0 1 5
1682 2 4.2 -9 0 0 0 0 1 5
1715 2 4 -8.8 0 0 0 0 1 5
1716 2 4.2 -8.8 0 0 0 0 1 5
1683 2 4.4 -9 0 0 0 0 1 5
1684 2 4.6 -9 0 0 0 0 1 5
1717 2 4.4 -8.8 0 0 0 0 1 5
1718 2 4.6 -8.8 0 0 0 0 1 5
1685 2 4.8 -9 0 0 0 0 1 5
1686 2 5 -9 0 0 0 0 1 5
1719 2 4.8 -8.8 0 0 0 0 1 5
1720 2 5 -8.8 0 0 0 0 1 5
1687 2 5.2 -9 0 0 0 0 1 5
1688 2 5.4 -9 0 0 0 0 1 5
1721 2 5.2 -8.8 0 0 0 0 1 5
1722 2 5.4 -8.8 0 0 0 0 1 5
1689 2 5.6 -9 0 0 0 0 1 5
1723 2 5.6 -8.8 0 0 0 0 1 5
1690 2 5.8 -9 0 0 0 0 1 5
1724 2 5.8 -8.8 0 0 0 0 1 5
1691 2 6 -9 0 0 0 0 1 5
1725 2 6 -8.8 0 0 0 0 1 5
1692 2 6.2 -9 0 0 0 0 1 5
1693 2 6.4 -9 0 0 0 0 1 5
1726 2 6.2 -8.8 0 0 0 0 1 5
1727 2 6.4 -8.8 0 0 0 0 1 5
1694 2 6.6 -9 0 0 0 0 1 5
1695 2 6.8 -9 0 0 0 0 1 5
1728 2 6.6 -8.8 0 0 0 0 1 5
1729 2 6.8 -8.8 0 0 0 0 1 5
1696 2 7 -9 0 0 0 0 1 5
1697 2 7.2 -9 0 0 0 0 1 5
1730 2 7 -8.8 0 0 0 0 1 5
1731 2 7.2 -8.8 0 0 0 0 1 5
1739 2 2 -8.6 0 0 0 0 1 5
1773 2 2 -8.4 0 0 0 0 1 5
1740 2 2.2 -8.6 0 0 0 0 1 5
1741 2 2.4 -8.6 0 0 0 0 1 5
1774 2 2.2 -8.4 0 0 0 0 1 5
1775 2 2.4 -8.4 0 0 0 0 1 5
1742 2 2.6 -8.6 0 0 0 0 1 5
1743 2 2.8 -8.6 0 0 0 0 1 5
1776 2 2.6 -8.4 0 0 0 0 1 5
1777 2 2.8 -8.4 0 0 0 0 1 5
1744 2 3 -8.6 0 0 0 0 1 5
1778 2 3 -8.4 0 0 0 0 1 5
1745 2 3.2 -8.6 0 0 0 0 1 5
1779 2 3.2 -8.4 0 0 0 0 1 5
1746 2 3.4 -8.6 0 0 0 0 1 5
1780 2 3.4 -8.4 0 0 0 0 1 5
1747 2 3.6 -8.6 0 0 0 0 1 5
1781 2 3.6 -8.4 0 0 0 0 1 5
1748 2 3.8 -8.6 0 0 0 0 1 5
1782 2 3.8 -8.4 0 0 0 0 1 5
1749 2 4 -8.6 0 0 0 0 1 5
1750 2 4.2 -8.6 0 0 0 0 1 5
1783 2 4 -8.4 0 0 0 0 1 5
1784 2 4.2 -8.4 0 0 0 0 1 5
1751 2 4.4 -8.6 0 0 0 0 1 5
1752 2 4.6 -8.6 0 0 0 0 1 5
1785 2 4.4 -8.4 0 0 0 0 1 5
1786 2 4.6 -8.4 0 0 0 0 1 5
1753 2 4.8 -8.6 0 0 0 0 1 5
1754 2 5 -8.6 0 0 0 0 1 5
1787 2 4.8 -8.4 0 0 0 0 1 5
1788 2 5 -8.4 0 0 0 0 1 5
1755 2 5.2 -8.6 0 0 0 0 1 5
1756 2 5.4 -8.6 0 0 0 0 1 5
1789 2 5.2 -8.4 0 0 0 0 1 5
1790 2 5.4 -8.4 0 0 0 0 1 5
1757 2 5.6 -8.6 0 0 0 0 1 5
1791 2 5.6 -8.4 0 0 0 0 1 5
1758 2 5.8 -8.6 0 0 0 0 1 5
1792 2 5.8 -8.4 0 0 0 0 1 5
1759 2 6 -8.6 0 0 0 0 1 5
1793 2 6 -8.4 0 0 0 0 1 5
1760 2 6.2 -8.6 0 0 0 0 1 5
1761 2 6.4 -8.6 0 0 0 0 1 5
1794 2 6.2 -8.4 0 0 0 0 1 5
1795 2 6.4 -8.4 0 0 0 0 1 5
1762 2 6.6 -8.6 0 0 0 0 1 5
1763 2 6.8 -8.6 0 0 0 0 1 5
1796 2 6.6 -8.4 0 0 0 0 1 5
1797 2 6.8 -8.4 0 0 0 0 1 5
1764 2 7 -8.6 0 0 0 0 1 5
1765 2 7.2 -8.6 0 0 0 0 1 5
1798 2 7 -8.4 0 0 0 0 1 5
1799 2 7.2 -8.4 0 0 0 0 1 5
1807 2 2 -8.2 0 0 0 0 1 5
1841 2 2 -8 0 0 0 0 1 5
1808 2 2.2 -8.2 0 0 0 0 1 5
1809 2 2.4 -8.2 0 0 0 0 1 5
1842 2 2.2 -8 0 0 0 0 1 5
1843 2 2.4 -8 0 0 0 0 1 5
1810 2 2.6 -8.2 0 0 0 0 1 5
1811 2 2.8 -8.2 0 0 0 0 1 5
1844 2 2.6 -8 0 0 0 0 1 5
1845 2 2.8 -8 0 0 0 0 1 5
1812 2 3 -8.2 0 0 0 0 1 5
1846 2 3 -8 0 0 0 0 1 5
1813 2 3.2 -8.2 0 0 0 0 1 5
1847 2 3.2 -8 0 0 0 0 1 5
1814 2 3.4 -8.2 0 0 0 0 1 5
1848 2 3.4 -8 0 0 0 0 1 5
1815 2 3.6 -8.2 0 0 0 0 1 5
1849 2 3.6 -8 0 0 0 0 1 5
1816 2 3.8 -8.2 0 0 0 0 1 5
1850 2 3.8 -8 0 0 0 0 1 5
1817 2 4 -8.2 0 0 0 0 1 5
1818 2 4.2 -8.2 0 0 0 0 1 5
1851 2 4 -8 0 0 0 0 1 5
1852 2 4.2 -8 0 0 0 0 1 5
1819 2 4.4 -8.2 0 0 0 0 1 5
1820 2 4.6 -8.2 0 0 0 0 1 5
1853 2 4.4 -8 0 0 0 0 1 5
1854 2 4.6 -8 0 0 0 0 1 5
1821 2 4.8 -8.2 0 0 0 0 1 5
1822 2 5 -8.2 0 0 0 0 1 5
1855 2 4.8 -8 0 0 0 0 1 5
1856 2 5 -8 0 0 0 0 1 5
1823 2 5.2 -8.2 0 0 0 0 1 5
1824 2 5.4 -8.2 0 0 0 0 1 5
1857 2 5.2 -8 0 0 0 0 1 5
1858 2 5.4 -8 0 0 0 0 1 5
1825 2 5.6 -8.2 0 0 0 0 1 5
1859 2 5.6 -8 0 0 0 0 1 5
1826 2 5.8 -8.2 0 0 0 0 1 5
1860 2 5.8 -8 0 0 0 0 1 5
1827 2 6 -8.2 0 0 0 0 1 5
1861 2 6 -8 0 0 0 0 1 5
1828 2 6.2 -8.2 0 0 0 0 1 5
1829 2 6.4 -8.2 0 0 0 0 1 5
1862 2 6.2 -8 0 0 0 0 1 5
1863 2 6.4 -8 0 0 0 0 1 5
1830 2 6.6 -8.2 0 0 0 0 1 5
1831 2 6.8 -8.2 0 0 0 0 1 5
1864 2 6.6 -8 0 0 0 0 1 5
1865 2 6.8 -8 0 0 0 0 1 5
1832 2 7 -8.2 0 0 0 0 1 5
1833 2 7.2 -8.2 0 0 0 0 1 5
1866 2 7 -8 0 0 0 0 1 5
1867 2 7.2 -8 0 0 0 0 1 5
1875 2 2 -7.8 0 0 0 0 1 5
1909 2 2 -7.6 0 0 0 0 1 5
1943 2 2 -7.4 0 0 0 0 0.999056 5
1876 2 2.2 -7.8 0 0 0 0 1 5
1877 2 2.4 -7.8 0 0 0 0 1 5
1910 2 2.2 -7.6 0 0 0 0 1 5
1911 2 2.4 -7.6 0 0 0 0 1 5
1944 2 2.2 -7.4 0 0 0 0 0.998983 5
1945 2 2.4 -7.4 0 0 0 0 1.0022 5
1878 2 2.6 -7.8 0 0 0 0 1 5
1879 2 2.8 -7.8 0 0 0 0 1 5
1912 2 2.6 -7.6 0 0 0 0 1 5
1913 2 2.8 -7.6 0 0 0 0 1 5
1946 2 2.6 -7.4 0 0 0 0 0.999796 5
1947 2 2.8 -7.4 0 0 0 0 0.998551 5
1880 2 3 -7.8 0 0 0 0 1 5
1914 2 3 -7.6 0 0 0 0 1 5
1948 2 3 -7.4 0 0 0 0 0.99963 5
1881 2 3.2 -7.8 0 0 0 0 1 5
1915 2 3.2 -7.6 0 0 0 0 1 5
1949 2 3.2 -7.4 0 0 0 0 1.00634 5
1882 2 3.4 -7.8 0 0 0 0 1 5
1916 2 3.4 -7.6 0 0 0 0 1 5
1950 2 3.4 -7.4 0 0 0 0 0.999888 5
1883 2 3.6 -7.8 0 0 0 0 1 5
1917 2 3.6 -7.6 0 0 0 0 1 5
1951 2 3.6 -7.4 0 0 0 0 0.991767 5
1884 2 3.8 -7.8 0 0 0 0 1 5
1918 2 3.8 -7.6 0 0 0 0 1 5
1952 2 3.8 -7.4 0 0 0 0 1.02926 5
1885 2 4 -7.8 0 0 0 0 1 5
1886 2 4.2 -7.8 0 0 0 0 1 5
1919 2 4 -7.6 0 0 0 0 1 5
1920 2 4.2 -7.6 0 0 0 0 1 5
1953 2 4 -7.4 0 0 0 0 1.04007 5
1954 2 4.2 -7.4 0 0 0 0 1.04964 5
1887 2 4.4 -7.8 0 0 0 0 1 5
1888 2 4.6 -7.8 0 0 0 0 1 5
1921 2 4.4 -7.6 0 0 0 0 1 5
1922 2 4.6 -7.6 0 0 0 0 1 5
1955 2 4.4 -7.4 0 0 0 0 1.04286 5
1956 2 4.6 -7.4 0 0 0 0 1.04116 5
1889 2 4.8 -7.8 0 0 0 0 1 5
1890 2 5 -7.8 0 0 0 0 1 5
1923 2 4.8 -7.6 0 0 0 0 1 5
1924 2 5 -7.6 0 0 0 0 1 5
1957 2 4.8 -7.4 0 0 0 0 1.04093 5
1958 2 5 -7.4 0 0 0 0 1.04082 5
1891 2 5.2 -7.8 0 0 0 0 1 5
1892 2 5.4 -7.8 0 0 0 0 1 5
1925 2 5.2 -7.6 0 0 0 0 1 5
1926 2 5.4 -7.6 0 0 0 0 1 5
1959 2 5.2 -7.4 0 0 0 0 1.0407 5
1960 2 5.4 -7.4 0 0 0 0 1.04052 5
1893 2 5.6 -7.8 0 0 0 0 1 5
1927 2 5.6 -7.6 0 0 0 0 1 5
1961 2 5.6 -7.4 0 0 0 0 1.04062 5
1894 2 5.8 -7.8 0 0 0 0 1 5
1928 2 5.8 -7.6 0 0 0 0 1 5
1962 2 5.8 -7.4 0 0 0 0 1.0403 5
1895 2 6 -7.8 0 0 0 0 1 5
1929 2 6 -7.6 0 0 0 0 1 5
1963 2 6 -7.4 0 0 0 0 1.04032 5
1896 2 6.2 -7.8 0 0 0 0 1 5
1897 2 6.4 -7.8 0 0 0 0 1 5
1930 2 6.2 -7.6 0 0 0 0 1 5
1931 2 6.4 -7.6 0 0 0 0 1 5
1964 2 6.2 -7.4 0 0 0 0 1.0403 5
1965 2 6.4 -7.4 0 0 0 0 1.04011 5
1898 2 6.6 -7.8 0 0 0 0 1 5
1899 2 6.8 -7.8 0 0 0 0 1 5
1932 2 6.6 -7.6 0 0 0 0 1 5
1933 2 6.8 -7.6 0 0 0 0 1 5
1966 2 6.6 -7.4 0 0 0 0 1.04004 5
1967 2 6.8 -7.4 0 0 0 0 1.04008 5
1900 2 7 -7.8 0 0 0 0 1 5
1901 2 7.2 -7.8 0 0 0 0 1 5
1934 2 7 -7.6 0 0 0 0 1 5
1935 2 7.2 -7.6 0 0 0 0 1 5
1968 2 7 -7.4 0 0 0 0 1.03995 5
1969 2 7.2 -7.4 0 0 0 0 1.03997 5
1977 2 2 -7.2 0 0 0 0 1.00056 5
2011 2 2 -7 0 0 0 0 1.001 5
1978 2 2.2 -7.2 0 0 0 0 0.998188 5
1979 2 2.4 -7.2 0 0 0 0 1.00051 5
2012 2 2.2 -7 0 0 0 0 0.998832 5
2013 2 2.4 -7 0 0 0 0 0.999899 5
1980 2 2.6 -7.2 0 0 0 0 0.999891 5
1981 2 2.8 -7.2 0 0 0 0 0.999601 5
2014 2 2.6 -7 0 0 0 0 0.99997 5
2015 2 2.8 -7 0 0 0 0 0.999867 5
1982 2 3 -7.2 0 0 0 0 0.999998 5
2016 2 3 -7 0 0 0 0 1.00001 5
1983 2 3.2 -7.2 0 0 0 0 1.0012 5
2017 2 3.2 -7 0 0 0 0 1.00044 5
1984 2 3.4 -7.2 0 0 0 0 0.99993 5
2018 2 3.4 -7 0 0 0 0 1.00027 5
1985 2 3.6 -7.2 0 0 0 0 1.00145 5
2019 2 3.6 -7 0 0 0 0 1.00251 5
1986 2 3.8 -7.2 0 0 0 0 1.01857 5
2020 2 3.8 -7 0 0 0 0 1.01425 5
1987 2 4 -7.2 0 0 0 0 1.03284 5
1988 2 4.2 -7.2 0 0 0 0 1.04429 5
2021 2 4 -7 0 0 0 0 1.02863 5
2022 2 4.2 -7 0 0 0 0 1.04189 5
1989 2 4.4 -7.2 0 0 0 0 1.04658 5
1990 2 4.6 -7.2 0 0 0 0 1.04306 5
2023 2 4.4 -7 0 0 0 0 1.04777 5
2024 2 4.6 -7 0 0 0 0 1.04446 5
1991 2 4.8 -7.2 0 0 0 0 1.04219 5
1992 2 5 -7.2 0 0 0 0 1.04202 5
2025 2 4.8 -7 0 0 0 0 1.04308 5
2026 2 5 -7 0 0 0 0 1.04283 5
1993 2 5.2 -7.2 0 0 0 0 1.04188 5
1994 2 5.4 -7.2 0 0 0 0 1.04173 5
2027 2 5.2 -7 0 0 0 0 1.04278 5
2028 2 5.4 -7 0 0 0 0 1.0426 5
1995 2 5.6 -7.2 0 0 0 0 1.04147 5
2029 2 5.6 -7 0 0 0 0 1.04221 5
1996 2 5.8 -7.2 0 0 0 0 1.04133 5
2030 2 5.8 -7 0 0 0 0 1.04211 5
1997 2 6 -7.2 0 0 0 0 1.04133 5
2031 2 6 -7 0 0 0 0 1.04213 5
1998 2 6.2 -7.2 0 0 0 0 1.04126 5
1999 2 6.4 -7.2 0 0 0 0 1.04121 5
2032 2 6.2 -7 0 0 0 0 1.04203 5
2033 2 6.4 -7 0 0 0 0 1.042 5
2000 2 6.6 -7.2 0 0 0 0 1.04117 5
2001 2 6.8 -7.2 0 0 0 0 1.04106 5
2034 2 6.6 -7 0 0 0 0 1.04193 5
2035 2 6.8 -7 0 0 0 0 1.04178 5
2002 2 7 -7.2 0 0 0 0 1.04099 5
2003 2 7.2 -7.2 0 0 0 0 1.04095 5
2036 2 7 -7 0 0 0 0 1.04169 5
2037 2 7.2 -7 0 0 0 0 1.04162 5
15347 1 0.439867 -6.74606 0.02 0 0 0 1 2
15348 1 0.631906 -6.74071 0.02 0 0 0 1 2
15349 1 0.822119 -6.73853 0.02 0 0 0 1 2
15350 1 0.436833 -6.55135 0.02 0 0 0 1 2
15351 1 0.619803 -6.54387 0.02 0 0 0 1 2
15352 1 0.796394 -6.52885 0.02 0 0 0 1 2
15353 1 1.01073 -6.73888 0.02 0 0 0 1 2
15354 1 1.1972 -6.73265 0.02 0 -4.89229e-14 -5.46393e-14 1 2
15355 1 0.975772 -6.545 0.02 0 0 0 1 2
15356 1 1.16548 -6.54222 0.02 0 0 0 1 2
15357 1 1.38345 -6.73781 0.02 0 -1.83026e-07 -1.04236e-07 1 2
15358 1 1.57755 -6.75088 0.02 0 -0.00017425 -6.98027e-05 1 2
15359 1 1.37409 -6.55789 0.02 0 -2.03749e-10 -8.79926e-11 1 2
15360 1 1.5837 -6.5675 0.02 0 -1.33253e-06 5.88028e-06 1 2
15361 1 1.7805 -6.75403 0.02 0 -0.0021229 -0.000574386 1 2
15362 1 1.9857 -6.7556 0.02 0 -0.00373065 -0.000593796 1 2
15363 1 1.78478 -6.57252 0.02 0 -6.02835e-05 6.32621e-05 1 2
15364 1 1.98708 -6.57289 0.02 0 -1.13162e-05 0.000262663 1 2
15012 1 2.40952 -6.55978 0.02 0 0.000184682 0.000479541 1 2
15365 1 2.18725 -6.74887 0.02 0 -0.00318443 -0.000510154 1 2
15366 1 2.39035 -6.73874 0.02 0 -0.00254958 -0.000519718 1 2
15367 1 2.19778 -6.56956 0.02 0 9.87707e-05 0.000456391 1 2
15011 1 2.59659 -6.75993 0.02 0 -0.00312845 -0.000448181 1 2
15013 1 2.6102 -6.56879 0.02 0 0.000108505 0.000398192 1 2
15014 1 2.79703 -6.73563 0.02 0 -0.00234984 -0.000416829 1 2
15016 1 2.81296 -6.55292 0.02 0 0.000142393 0.0004051 1 2
15015 1 2.99369 -6.75328 0.02 0 -0.00303201 -0.000481064 1 2
15017 1 3.01781 -6.5679 0.02 0 0.000123608 0.000475922 1 2
15018 1 3.19193 -6.73604 0.02 0 -0.00251492 -0.000543634 1 2
15020 1 3.23091 -6.56301 0.02 0 0.000129841 0.000567601 1 2
15019 1 3.39818 -6.76867 0.02 0 -0.00327086 -0.000423204 1 2
15021 1 3.42982 -6.58096 0.02 0 3.24096e-05 0.000524695 1 2
15022 1 3.60654 -6.73157 0.02 0 -0.00328618 1.33102e-05 1 2
15024 1 3.62808 -6.55022 0.02 0 -0.000891203 0.00051733 1 2
15023 1 3.80272 -6.74733 0.02 0 -0.00845373 0.000183995 1 2
15025 1 3.83255 -6.56511 0.02 0 -0.00438479 0.000622819 1 2
15026 1 3.99985 -6.75607 0.02 0 -0.0159864 -0.000361364 1.00561 2
15028 1 3.99973 -6.60287 0.02 0 -0.00885016 0.000696608 1.03057 2
15027 1 4.0869 -6.70029 0.00657349 0.00157175 0.00116972 0.000471438 1.04178 0
15029 1 3.99988 -6.56887 0.02 0 -0.00828785 0.000516772 1.03196 2
14629 1 4.20002 -6.61989 0.0076323 0.0017793 0.000459152 0.000137372 1.05028 0
14628 1 4.07395 -6.49099 0.0103435 0.00153932 0.000312372 0.000335815 1.04253 0
14630 1 4.0031 -6.83624 -0.000579538 -0.000762616 3.70215e-05 -2.27486e-05 1.04601 0
14631 1 4.39087 -6.67253 0.00665438 0.00059277 8.18585e-05 2.67746e-05 1.04709 0
14641 1 4.3099 -6.55523 0.0087028 0.00200742 0.000133895 3.77414e-05 1.05002 0
14789 1 4.23792 -6.78105 0.00217389 -0.00137183 0.000356 1.10107e-05 1.05539 0
14634 1 4.5806 -6.53265 0.0100694 0.0016721 -2.06827e-05 7.01204e-06 1.04288 0
14635 1 4.53028 -6.67472 0.00690513 0.000579667 -1.29569e-05 7.82855e-06 1.04367 0
14638 1 4.71234 -6.57777 0.00849137 0.0013167 -1.27568e-05 7.70066e-06 1.04224 0
14639 1 4.83685 -6.47491 0.00961261 0.00173625 -1.10205e-05 7.23782e-06 1.04246 0
14793 1 4.55104 -6.81904 0.00372271 -0.000771993 -2.50041e-06 9.62991e-06 1.04638 0
14317 1 4.71926 -6.71766 0.00500346 0.000440074 -6.84606e-06 7.55314e-06 1.04289 0
14790 1 4.88312 -6.61725 0.00664854 0.000954076 -7.51023e-06 5.42962e-06 1.04225 0
14312 1 5.03149 -6.55885 0.00714769 0.00102672 -6.85081e-06 3.2705e-06 1.04227 0
14324 1 4.85345 -6.79557 0.00298824 -0.000450433 -5.95402e-06 4.73574e-06 1.04476 0
14313 1 5.17125 -6.51111 0.00741692 0.00104408 -4.23591e-06 1.90108e-06 1.04216 0
13969 1 5.01237 -6.71233 0.00394428 0.000239221 -5.99981e-06 3.49939e-06 1.04276 0
14320 1 5.23151 -6.62595 0.00510075 0.000541858 -3.31201e-06 1.51318e-06 1.0419 0
13971 1 5.13768 -6.7805 0.0024894 -0.000442804 -4.9581e-06 2.26818e-06 1.04403 0
13979 1 5.37032 -6.64124 0.00444659 0.000391927 -1.4029e-06 7.54891e-07 1.04175 0
13644 1 5.32825 -6.80736 0.00202323 -0.000651564 -3.11254e-06 1.06292e-06 1.0442 0
13975 1 5.53683 -6.61662 0.00453023 0.000391439 1.19242e-06 -2.50028e-08 1.04149 0
13983 1 5.69068 -6.59921 0.00450548 0.000384517 2.97067e-06 -7.07143e-07 1.04131 0
13274 1 5.52045 -6.77373 0.00221017 -0.000422396 -8.05575e-07 6.19903e-08 1.04334 0
13289 1 5.69366 -6.75337 0.00220953 -0.000306227 9.16304e-07 -5.51944e-07 1.04269 0
13649 1 5.83429 -6.55922 0.00484846 0.000433443 4.30967e-06 -1.31258e-06 1.04118 0
13641 1 5.93201 -6.64441 0.00341134 0.000236773 3.71078e-06 -1.49081e-06 1.04124 0
13276 1 6.09182 -6.62592 0.00347983 0.000248758 3.76867e-06 -1.7734e-06 1.04109 0
12949 1 5.85447 -6.79473 0.00163292 -0.000595537 1.57892e-06 -9.64625e-07 1.04336 0
12617 1 6.0597 -6.80364 0.00150054 -0.000629098 1.83892e-06 -1.35368e-06 1.04336 0
12936 1 6.22245 -6.65894 0.00285614 0.000151731 2.80884e-06 -1.68013e-06 1.04114 0
12953 1 6.38384 -6.60845 0.00339473 0.00024259 1.99151e-06 -1.50853e-06 1.04085 0
12604 1 6.49892 -6.65561 0.00264467 0.000138632 6.21114e-07 -1.10096e-06 1.04095 0
11882 1 6.30487 -6.79776 0.00135274 -0.000563656 1.33295e-06 -1.23198e-06 1.04306 0
11552 1 6.52992 -6.82586 0.00111946 -0.000738561 5.01802e-08 -5.02279e-07 1.04328 0
12941 1 6.65078 -6.63691 0.0027826 0.000157977 -1.03597e-06 -5.80614e-07 1.04082 0
11544 1 6.81201 -6.60883 0.00305181 0.000178443 -2.92097e-06 1.60616e-07 1.04072 0
11164 1 6.74676 -6.77074 0.00139958 -0.000403345 -1.61694e-06 -1.27995e-08 1.04241 0
11323 1 6.92053 -6.79524 0.00119021 -0.000644555 -2.74155e-06 6.03831e-07 1.04295 0
12288 1 6.9635 -6.61362 0.00294414 0.000152969 -4.51445e-06 8.33132e-07 1.04074 0
12601 1 7.12013 -6.58961 0.00319119 0.000153273 -5.91988e-06 1.55746e-06 1.04067 0
12612 1 7.27143 -6.58387 0.00322495 0.000137554 -6.52998e-06 2.07663e-06 1.04064 0
10507 1 7.09127 -6.75405 0.00150325 -0.000393337 -4.20577e-06 1.07025e-06 1.04221 0
10519 1 7.2517 -6.75432 0.00145483 -0.000408792 -4.81084e-06 1.58566e-06 1.04217 0
15368 1 0.473388 -6.12486 0.02 0 0 0 1 2
15369 1 0.450724 -6.34641 0.02 0 0 0 1 2
15370 1 0.626077 -6.3224 0.02 0 0 0 1 2
15371 1 0.801 -6.31438 0.02 0 0 0 1 2
15372 1 0.815707 -6.10319 0.02 0 0 0 1 2
15373 1 0.978088 -6.33691 0.02 0 0 0 1 2
15374 1 1.1594 -6.34124 0.02 0 0 0 1 2
15375 1 0.995939 -6.12551 0.02 0 0 0 1 2
15376 1 1.18309 -6.14134 0.02 0 0 0 1 2
15377 1 1.34549 -6.37765 0.02 0 0 0 1 2
15378 1 1.55177 -6.39041 0.02 0 2.28819e-10 4.73847e-10 1 2
15379 1 1.37231 -6.18839 0.02 0 0 0 1 2
15380 1 1.57124 -6.20886 0.02 0 3.83267e-12 1.10809e-11 1 2
15381 1 1.77648 -6.39636 0.02 0 4.10034e-06 7.34011e-06 1 2
15382 1 2.00914 -6.39894 0.02 0 5.2412e-05 0.000127983 1 2
15383 1 1.77196 -6.21492 0.02 0 8.78318e-08 2.18218e-07 1 2
15384 1 1.97316 -6.22262 0.02 0 3.05816e-06 6.23387e-06 1 2
15030 1 2.43962 -6.37653 0.02 0 9.8336e-05 0.000169206 1 2
15385 1 2.17855 -6.21365 0.02 0 9.19171e-06 1.71243e-05 1 2
15386 1 2.23074 -6.39272 0.02 0 0.000104456 0.000194523 1 2
15387 1 2.38275 -6.19238 0.02 0 7.67021e-06 1.46531e-05 1 2
15031 1 2.58905 -6.18885 0.02 0 6.69435e-06 1.27386e-05 1 2
15032 1 2.64012 -6.37813 0.02 0 9.2382e-05 0.000153874 1 2
15035 1 2.79193 -6.1736 0.02 0 4.96384e-06 9.62672e-06 1 2
15033 1 2.83588 -6.36413 0.02 0 7.52491e-05 0.000129258 1 2
15034 1 3.03232 -6.38198 0.02 0 9.47781e-05 0.000151641 1 2
15036 1 2.99377 -6.19033 0.02 0 6.68331e-06 1.25697e-05 1 2
15037 1 3.2288 -6.38001 0.02 0 9.39895e-05 0.000141296 1 2
15039 1 3.19557 -6.1913 0.02 0 6.68843e-06 1.2986e-05 1 2
15040 1 3.40406 -6.20515 0.02 0 3.91242e-06 1.64014e-05 1 2
15038 1 3.42706 -6.39143 0.02 0 0.000101431 0.000148529 1 2
15041 1 3.6217 -6.36654 0.02 0 -0.000893508 6.10866e-05 1 2
15043 1 3.63001 -6.18795 0.02 0 -0.00122965 -3.5738e-05 1 2
15042 1 3.81645 -6.375 0.02 0 -0.00407371 -0.000162884 1 2
15044 1 3.85468 -6.19302 0.02 0 -0.00589898 -0.000391698 1 2
15045 1 3.99939 -6.40992 0.02 0 -0.00469445 0.000294101 1.01293 2
15047 1 3.99999 -6.23723 0.02 0 -0.00762616 0.000135203 1.03231 2
15046 1 4.00006 -6.38014 0.0181469 0.000135714 -0.00741228 0.000542856 1.03246 0
15048 1 4.00775 -6.19139 0.0092834 0.000419261 3.73532e-05 0.000126255 1.03521 0
14632 1 4.385 -6.37404 0.0116957 0.00274801 2.16499e-05 1.93247e-06 1.047 0
14633 1 4.46285 -6.48397 0.0111006 0.002083 -5.65792e-06 9.30164e-06 1.04492 0
14643 1 4.24561 -6.40231 0.00982197 0.00266381 9.93214e-05 -7.99099e-06 1.05099 0
14642 1 4.22332 -6.12516 0.0100205 0.00239704 -4.93616e-05 0.000124257 1.04884 0
14644 1 4.35342 -6.23224 0.0119663 0.00314601 1.71527e-05 3.62395e-05 1.04702 0
14637 1 4.54331 -6.31569 0.0128867 0.00285767 -2.80112e-05 1.50963e-05 1.04308 0
14646 1 4.38805 -6.08088 0.013217 0.00347532 -5.6099e-05 1.34364e-05 1.04495 0
14645 1 4.17084 -6.28795 0.00983758 0.00209216 0.000179256 -9.29239e-06 1.0491 0
14648 1 4.5246 -6.16026 0.0137647 0.00344443 -4.14203e-05 9.97248e-06 1.0428 0
14636 1 4.67972 -6.39802 0.0115524 0.00232124 -1.87366e-05 1.13297e-05 1.04247 0
14650 1 4.68857 -6.03612 0.0139188 0.00370189 -2.83808e-05 8.3043e-07 1.04225 0
14649 1 4.6774 -6.20918 0.0132014 0.00315664 -2.67259e-05 9.2647e-06 1.0424 0
14652 1 4.81621 -6.12627 0.0130895 0.00325626 -1.78985e-05 2.79645e-06 1.04269 0
14640 1 4.80876 -6.31016 0.0117842 0.0025179 -1.56727e-05 7.42286e-06 1.04266 0
14653 1 4.94128 -6.23692 0.0117766 0.00256864 -1.0594e-05 3.13564e-06 1.04293 0
14795 1 4.95896 -6.06084 0.0128718 0.00322923 -9.05881e-06 1.02054e-06 1.04291 0
14791 1 4.97407 -6.40203 0.00988138 0.00180792 -8.83348e-06 3.97438e-06 1.0427 0
14322 1 5.12097 -6.36525 0.00966375 0.00166543 -4.75938e-06 2.06501e-06 1.04264 0
14792 1 5.08346 -6.20591 0.0114383 0.00237655 -4.92599e-06 1.64903e-06 1.04291 0
14334 1 5.21725 -6.14222 0.0114621 0.00234497 -4.78072e-07 1.22027e-06 1.04269 0
14319 1 5.26174 -6.31043 0.00973438 0.0016214 -8.01827e-07 1.1363e-06 1.04248 0
14794 1 5.36757 -6.14906 0.0108888 0.00201998 2.6896e-06 1.01893e-06 1.04241 0
14328 1 5.46763 -6.49116 0.00673641 0.000808361 1.47988e-06 1.91479e-07 1.04166 0
14316 1 5.33245 -6.44849 0.00777204 0.00106443 -4.49287e-07 8.62441e-07 1.04201 0
14332 1 5.50521 -6.04533 0.0112239 0.00213727 5.28921e-06 1.37033e-06 1.0422 0
14314 1 5.42607 -6.28251 0.00943569 0.00146228 2.70287e-06 5.42111e-07 1.04221 0
14315 1 5.5796 -6.17142 0.00998423 0.00158936 5.50615e-06 4.95972e-07 1.0421 0
14321 1 5.55457 -6.34028 0.00837166 0.00112477 4.0466e-06 -1.688e-08 1.0419 0
14318 1 5.7333 -6.09875 0.0101211 0.00158791 6.90118e-06 6.32654e-07 1.04194 0
14325 1 5.64812 -6.45175 0.00674942 0.000763424 4.09703e-06 -5.31013e-07 1.04152 0
14327 1 5.71264 -6.26787 0.00865203 0.00114193 5.97043e-06 -2.7306e-07 1.04185 0
14326 1 5.86621 -6.23193 0.00857172 0.0010715 6.59408e-06 -4.09035e-07 1.04174 0
14329 1 5.80276 -6.40793 0.00687618 0.000746724 5.46824e-06 -1.00671e-06 1.04147 0
14331 1 5.99161 -6.14669 0.00902395 0.00114345 6.66402e-06 5.49773e-08 1.04169 0
13970 1 5.95319 -6.36695 0.00697478 0.00072877 5.84816e-06 -1.1959e-06 1.04143 0
13968 1 6.12362 -6.19504 0.00829583 0.000915609 5.70013e-06 -2.34488e-07 1.04156 0
13974 1 6.11207 -6.34043 0.00691708 0.000675397 5.27769e-06 -1.10249e-06 1.04137 0
13640 1 6.03077 -6.49739 0.00531264 0.000492313 4.94852e-06 -1.69022e-06 1.0411 0
13280 1 6.33644 -6.48388 0.00499008 0.00040714 2.80176e-06 -1.43162e-06 1.04094 0
13972 1 6.29162 -6.13173 0.00850978 0.00088829 4.32295e-06 4.88928e-07 1.04147 0
13978 1 6.28143 -6.28904 0.00711066 0.000647126 3.92095e-06 -5.46369e-07 1.04135 0
13984 1 6.20541 -6.45852 0.00547877 0.00047568 4.15712e-06 -1.50811e-06 1.04106 0
13973 1 6.43686 -6.07221 0.0087416 0.00086412 2.80506e-06 1.23032e-06 1.04139 0
13977 1 6.55157 -6.1379 0.00803448 0.000666801 8.7038e-07 1.17516e-06 1.04132 0
13986 1 6.42736 -6.27719 0.0069831 0.000573772 2.13038e-06 -6.02282e-08 1.04128 0
13656 1 6.48877 -6.40714 0.00561643 0.000417671 1.00479e-06 -5.11882e-07 1.04101 0
13981 1 6.70696 -6.09941 0.00815091 0.000599156 -1.12086e-06 1.76735e-06 1.04126 0
13982 1 6.61268 -6.27447 0.00675601 0.000474398 -5.06652e-07 6.80269e-07 1.04118 0
13648 1 6.58613 -6.49394 0.00458174 0.000332322 -4.05821e-07 -4.98974e-07 1.04079 0
13985 1 6.85547 -6.14241 0.00764904 0.000450693 -3.37095e-06 1.99267e-06 1.04119 0
13646 1 6.75149 -6.29752 0.00639131 0.000388085 -2.55877e-06 1.10442e-06 1.04108 0
13271 1 6.73334 -6.46039 0.00480716 0.000310824 -2.4868e-06 3.18783e-07 1.04078 0
13645 1 7.01395 -6.11009 0.00778318 0.000377892 -4.89596e-06 2.28627e-06 1.04115 0
13652 1 6.90943 -6.2892 0.0063315 0.000321606 -4.5452e-06 1.73409e-06 1.04103 0
13284 1 6.89326 -6.45135 0.00478642 0.000273031 -4.54309e-06 1.12257e-06 1.04074 0
13647 1 7.16867 -6.12238 0.00758828 0.000276696 -5.89469e-06 2.30946e-06 1.04111 0
13659 1 7.06567 -6.27835 0.00632479 0.000258259 -5.96894e-06 2.19153e-06 1.041 0
13281 1 7.05006 -6.44217 0.00479448 0.000234164 -6.09046e-06 1.78294e-06 1.04071 0
13657 1 7.23665 -6.26785 0.00633429 0.000189762 -6.66463e-06 2.41696e-06 1.04097 0
14514 1 4.38331 -0.247371 0.0117835 0.000583139 -4.42029e-05 1.3458e-05 1.04146 0
12940 1 7.21112 -6.42461 0.00490347 0.000190414 -6.99389e-06 2.29921e-06 1.0407 0
14168 1 6.14852 -0.100913 0.0124251 0.000260071 -1.2702e-05 -6.24742e-06 1.04019 0
14160 1 5.50668 -0.043584 0.0124106 0.00012111 -5.22464e-06 -6.62794e-06 1.03999 0
15388 1 0.640577 -6.08372 0.02 0 0 0 1 2
15389 1 0.465214 -5.88435 0.02 0 0 0 1 2
15390 1 0.64154 -5.86482 0.02 0 0 0 1 2
15391 1 0.823296 -5.88612 0.02 0 0 0 1 2
15392 1 0.471525 -5.65275 0.02 0 0 0 1 2
15393 1 0.660397 -5.65753 0.02 0 0 0 1 2
15394 1 0.852934 -5.67751 0.02 0 0 0 1 2
15395 1 1.00759 -5.91883 0.02 0 0 0 1 2
15396 1 1.20013 -5.94538 0.02 0 0 0 1 2
15397 1 1.04518 -5.719 0.02 0 0 0 1 2
15398 1 1.24297 -5.75573 0.02 0 0 0 1 2
15399 1 1.39286 -5.99199 0.02 0 0 0 1 2
15400 1 1.5879 -6.01992 0.02 0 6.22534e-13 9.63326e-11 1 2
15401 1 1.43302 -5.79335 0.02 0 0 0 1 2
15402 1 1.62019 -5.8254 0.02 0 0 0 1 2
15403 1 1.78612 -6.0226 0.02 0 3.34472e-10 2.98551e-09 1 2
15404 1 1.98442 -6.03526 0.02 0 2.97928e-08 7.79752e-08 1 2
15405 1 1.8107 -5.82321 0.02 0 1.06961e-12 1.87302e-11 1 2
15406 1 2.00296 -5.84213 0.02 0 1.26585e-11 3.10535e-11 1 2
15407 1 2.18421 -6.02109 0.02 0 9.61769e-08 2.45989e-07 1 2
15408 1 2.3796 -5.99468 0.02 0 4.23901e-08 1.17672e-07 1 2
15409 1 2.19933 -5.82169 0.02 0 1.23092e-10 3.79688e-10 1 2
15410 1 2.39343 -5.79018 0.02 0 1.97665e-11 7.43312e-11 1 2
15049 1 2.57618 -5.99591 0.02 0 4.28988e-08 1.28762e-07 1 2
15050 1 2.58869 -5.79861 0.02 0 2.87242e-11 1.1212e-10 1 2
15051 1 2.78362 -5.9881 0.02 0 2.50501e-08 7.22806e-08 1 2
15053 1 2.79129 -5.80404 0.02 0 3.91039e-11 1.48957e-10 1 2
15052 1 3.00125 -6.00104 0.02 0 4.87241e-08 1.32604e-07 1 2
15054 1 2.99768 -5.81115 0.02 0 3.45436e-11 1.18877e-10 1 2
15055 1 3.21454 -6.003 0.02 0 4.26461e-08 1.09376e-07 1 2
15057 1 3.20421 -5.81359 0.02 0 6.52834e-11 2.12197e-10 1 2
15056 1 3.42541 -6.0243 0.02 0 -1.28255e-05 5.55916e-07 1 2
15058 1 3.41977 -5.84316 0.02 0 -6.26488e-06 2.58901e-07 1 2
15059 1 3.44587 -5.66559 0.02 0 -1.64374e-05 -4.78348e-08 1 2
15060 1 3.62814 -6.00969 0.02 0 -0.00116005 8.07598e-05 1 2
15062 1 3.66826 -5.83787 0.02 0 -0.00144039 0.000105495 1 2
15064 1 3.6565 -5.66211 0.02 0 -0.00112629 3.4405e-05 1 2
15061 1 3.83653 -6.01202 0.02 0 -0.0053542 0.000618912 1 2
15063 1 3.91984 -5.85177 0.02 0 -0.00667843 0.000245358 1 2
15065 1 3.87126 -5.68099 0.02 0 -0.00511707 0.000358146 1 2
15066 1 4.00253 -6.04379 0.00958058 0.000610638 -9.96515e-05 1.45803e-05 1.03352 0
15070 1 4.00017 -5.65661 0.0182203 0.000161892 -0.00711889 0.000647568 1.03171 0
15068 1 3.9999 -5.86894 0.02 0 -0.00752166 0.00046434 1.03109 2
15067 1 3.99979 -6.03057 0.02 0 -0.00500164 0.000465989 1.03268 2
14647 1 4.53793 -5.99644 0.0141718 0.00377387 -4.32486e-05 -1.24227e-06 1.04226 0
14656 1 4.32228 -5.9553 0.0121223 0.00328193 -4.54564e-05 -3.17106e-05 1.04614 0
14658 1 4.03423 -5.77426 0.010067 0.000988493 0.000210806 -2.96085e-05 1.03662 0
15069 1 4.24448 -5.82094 0.0108531 0.00255118 0.000116293 -6.9229e-05 1.04709 0
14657 1 4.45198 -5.8657 0.0140403 0.00370233 -3.5357e-05 -1.2394e-05 1.04275 0
14659 1 4.36172 -5.71767 0.0131292 0.00332109 4.25042e-05 -2.43889e-05 1.04421 0
14660 1 4.16282 -5.95369 0.0101955 0.00192635 -2.63424e-05 -0.000161279 1.0468 0
14661 1 4.45091 -5.61668 0.0140142 0.00359661 -6.26613e-07 -1.08824e-05 1.04225 0
14662 1 4.55792 -5.76246 0.0143814 0.00398112 -2.78457e-05 -9.26778e-06 1.04175 0
14655 1 4.84433 -5.94916 0.0137039 0.00376588 -1.43561e-05 -4.71944e-07 1.04265 0
14651 1 4.66822 -5.87447 0.0142811 0.00402183 -2.63953e-05 -4.93883e-06 1.04201 0
14664 1 4.65661 -5.65851 0.0143925 0.00415713 -1.63103e-05 -3.01638e-06 1.04175 0
14663 1 4.80824 -5.80438 0.0141081 0.00409548 -1.33556e-05 -7.43277e-07 1.04242 0
14666 1 4.81015 -5.65753 0.0142473 0.00424812 -9.27262e-06 2.33245e-06 1.04229 0
14667 1 4.96707 -5.71859 0.0139371 0.00408326 -4.46587e-06 3.63094e-06 1.04263 0
14799 1 5.09376 -6.01805 0.0126574 0.00309313 -2.98833e-06 1.28762e-06 1.04282 0
14796 1 5.35831 -5.98501 0.0120689 0.0026277 3.44427e-06 1.82273e-06 1.04237 0
14654 1 4.99666 -5.87295 0.0135166 0.00372836 -5.12883e-06 1.5088e-06 1.04277 0
14797 1 5.225 -5.95509 0.0126167 0.00301102 1.09857e-06 1.8936e-06 1.04257 0
14801 1 5.14575 -5.68367 0.0137568 0.00385664 2.98472e-07 5.15143e-06 1.04248 0
14798 1 5.15103 -5.82261 0.0133513 0.00355274 9.29747e-08 2.97256e-06 1.04259 0
14800 1 5.3165 -5.79103 0.0131189 0.00328419 3.25934e-06 3.61313e-06 1.04231 0
14802 1 5.33646 -5.62912 0.0136088 0.00358839 3.3601e-06 5.75817e-06 1.04219 0
14333 1 5.46779 -5.8728 0.0123785 0.0027543 5.39219e-06 2.63826e-06 1.04216 0