ITEM: TIMESTEP
36000
ITEM: NUMBER OF ATOMS
11680
ITEM: BOX BOUNDS ff ff pp
0.0000000000000000e+00 2.2000000000000000e+01
-1.0000000000000000e+01 1.0000000000000000e+01
-2.0000000000000000e-02 2.0000000000000000e-02
ITEM: ATOMS id type x y vx vy fx fy c_den c_phase
1501 2 2 -10 0 0 0 0 1 5
1551 2 2 -9.8 0 0 0 0 1 5
1601 2 2 -9.6 0 0 0 0 1 5
1502 2 2.2 -10 0 0 0 0 1 5
1503 2 2.4 -10 0 0 0 0 1 5
1552 2 2.2 -9.8 0 0 0 0 1 5
1553 2 2.4 -9.8 0 0 0 0 1 5
1602 2 2.2 -9.6 0 0 0 0 1 5
1603 2 2.4 -9.6 0 0 0 0 1 5
1504 2 2.6 -10 0 0 0 0 1 5
1505 2 2.8 -10 0 0 0 0 1 5
1554 2 2.6 -9.8 0 0 0 0 1 5
1555 2 2.8 -9.8 0 0 0 0 1 5
1604 2 2.6 -9.6 0 0 0 0 1 5
1605 2 2.8 -9.6 0 0 0 0 1 5
1506 2 3 -10 0 0 0 0 1 5
1507 2 3.2 -10 0 0 0 0 1 5
1556 2 3 -9.8 0 0 0 0 1 5
1557 2 3.2 -9.8 0 0 0 0 1 5
1606 2 3 -9.6 0 0 0 0 1 5
1607 2 3.2 -9.6 0 0 0 0 1 5
1508 2 3.4 -10 0 0 0 0 1 5
1509 2 3.6 -10 0 0 0 0 1 5
1558 2 3.4 -9.8 0 0 0 0 1 5
1559 2 3.6 -9.8 0 0 0 0 1 5
1608 2 3.4 -9.6 0 0 0 0 1 5
1609 2 3.6 -9.6 0 0 0 0 1 5
1510 2 3.8 -10 0 0 0 0 1 5
1560 2 3.8 -9.8 0 0 0 0 1 5
1610 2 3.8 -9.6 0 0 0 0 1 5
1511 2 4 -10 0 0 0 0 1 5
1561 2 4 -9.8 0 0 0 0 1 5
1611 2 4 -9.6 0 0 0 0 1 5
1512 2 4.2 -10 0 0 0 0 1 5
1562 2 4.2 -9.8 0 0 0 0 1 5
1612 2 4.2 -9.6 0 0 0 0 1 5
1513 2 4.4 -10 0 0 0 0 1 5
1514 2 4.6 -10 0 0 0 0 1 5
1563 2 4.4 -9.8 0 0 0 0 1 5
1564 2 4.6 -9.8 0 0 0 0 1 5
1613 2 4.4 -9.6 0 0 0 0 1 5
1614 2 4.6 -9.6 0 0 0 0 1 5
1515 2 4.8 -10 0 0 0 0 1 5
1516 2 5 -10 0 0 0 0 1 5
1565 2 4.8 -9.8 0 0 0 0 1 5
1566 2 5 -9.8 0 0 0 0 1 5
1615 2 4.8 -9.6 0 0 0 0 1 5
1616 2 5 -9.6 0 0 0 0 1 5
1517 2 5.2 -10 0 0 0 0 1 5
1518 2 5.4 -10 0 0 0 0 1 5
1567 2 5.2 -9.8 0 0 0 0 1 5
1568 2 5.4 -9.8 0 0 0 0 1 5
1617 2 5.2 -9.6 0 0 0 0 1 5
1618 2 5.4 -9.6 0 0 0 0 1 5
1519 2 5.6 -10 0 0 0 0 1 5
1520 2 5.8 -10 0 0 0 0 1 5
1569 2 5.6 -9.8 0 0 0 0 1 5
1570 2 5.8 -9.8 0 0 0 0 1 5
1619 2 5.6 -9.6 0 0 0 0 1 5
1620 2 5.8 -9.6 0 0 0 0 1 5
1521 2 6 -10 0 0 0 0 1 5
1522 2 6.2 -10 0 0 0 0 1 5
1571 2 6 -9.8 0 0 0 0 1 5
1572 2 6.2 -9.8 0 0 0 0 1 5
1621 2 6 -9.6 0 0 0 0 1 5
1622 2 6.2 -9.6 0 0 0 0 1 5
1523 2 6.4 -10 0 0 0 0 1 5
1524 2 6.6 -10 0 0 0 0 1 5
1573 2 6.4 -9.8 0 0 0 0 1 5
1574 2 6.6 -9.8 0 0 0 0 1 5
1623 2 6.4 -9.6 0 0 0 0 1 5
1624 2 6.6 -9.6 0 0 0 0 1 5
1525 2 6.8 -10 0 0 0 0 1 5
1526 2 7 -10 0 0 0 0 1 5
1575 2 6.8 -9.8 0 0 0 0 1 5
1576 2 7 -9.8 0 0 0 0 1 5
1625 2 6.8 -9.6 0 0 0 0 1 5
1626 2 7 -9.6 0 0 0 0 1 5
1527 2 7.2 -10 0 0 0 0 1 5
1577 2 7.2 -9.8 0 0 0 0 1 5
1627 2 7.2 -9.6 0 0 0 0 1 5
1528 2 7.4 -10 0 0 0 0 1 5
1529 2 7.6 -10 0 0 0 0 1 5
1578 2 7.4 -9.8 0 0 0 0 1 5
1579 2 7.6 -9.8 0 0 0 0 1 5
1628 2 7.4 -9.6 0 0 0 0 1 5
1629 2 7.6 -9.6 0 0 0 0 1 5
1530 2 7.8 -10 0 0 0 0 1 5
1531 2 8 -10 0 0 0 0 1 5
1580 2 7.8 -9.8 0 0 0 0 1 5
1581 2 8 -9.8 0 0 0 0 1 5
1630 2 7.8 -9.6 0 0 0 0 1 5
1631 2 8 -9.6 0 0 0 0 1 5
1532 2 8.2 -10 0 0 0 0 1 5
1533 2 8.4 -10 0 0 0 0 1 5
1582 2 8.2 -9.8 0 0 0 0 1 5
1583 2 8.4 -9.8 0 0 0 0 1 5
1632 2 8.2 -9.6 0 0 0 0 1 5
1633 2 8.4 -9.6 0 0 0 0 1 5
1534 2 8.6 -10 0 0 0 0 1 5
1535 2 8.8 -10 0 0 0 0 1 5
1584 2 8.6 -9.8 0 0 0 0 1 5
1585 2 8.8 -9.8 0 0 0 0 1 5
1634 2 8.6 -9.6 0 0 0 0 1 5
1635 2 8.8 -9.6 0 0 0 0 1 5
1536 2 9 -10 0 0 0 0 1 5
1537 2 9.2 -10 0 0 0 0 1 5
1586 2 9 -9.8 0 0 0 0 1 5
1587 2 9.2 -9.8 0 0 0 0 1 5
1636 2 9 -9.6 0 0 0 0 1 5
1637 2 9.2 -9.6 0 0 0 0 1 5
1538 2 9.4 -10 0 0 0 0 1 5
1539 2 9.6 -10 0 0 0 0 1 5
1588 2 9.4 -9.8 0 0 0 0 1 5
1589 2 9.6 -9.8 0 0 0 0 1 5
1638 2 9.4 -9.6 0 0 0 0 1 5
1639 2 9.6 -9.6 0 0 0 0 1 5
1540 2 9.8 -10 0 0 0 0 1 5
1590 2 9.8 -9.8 0 0 0 0 1 5
1640 2 9.8 -9.6 0 0 0 0 1 5
1541 2 10 -10 0 0 0 0 1 5
1591 2 10 -9.8 0 0 0 0 1 5
1641 2 10 -9.6 0 0 0 0 1 5
1542 2 10.2 -10 0 0 0 0 1 5
1592 2 10.2 -9.8 0 0 0 0 1 5
1642 2 10.2 -9.6 0 0 0 0 1 5
1543 2 10.4 -10 0 0 0 0 1 5
1593 2 10.4 -9.8 0 0 0 0 1 5
1643 2 10.4 -9.6 0 0 0 0 1 5
1544 2 10.6 -10 0 0 0 0 1 5
1594 2 10.6 -9.8 0 0 0 0 1 5
1644 2 10.6 -9.6 0 0 0 0 1 5
1545 2 10.8 -10 0 0 0 0 1 5
1595 2 10.8 -9.8 0 0 0 0 1 5
1645 2 10.8 -9.6 0 0 0 0 1 5
1651 2 2 -9.4 0 0 0 0 1 5
1701 2 2 -9.2 0 0 0 0 1 5
1652 2 2.2 -9.4 0 0 0 0 1 5
1653 2 2.4 -9.4 0 0 0 0 1 5
1702 2 2.2 -9.2 0 0 0 0 1 5
1703 2 2.4 -9.2 0 0 0 0 1 5
1654 2 2.6 -9.4 0 0 0 0 1 5
1655 2 2.8 -9.4 0 0 0 0 1 5
1704 2 2.6 -9.2 0 0 0 0 1 5
1705 2 2.8 -9.2 0 0 0 0 1 5
1656 2 3 -9.4 0 0 0 0 1 5
1657 2 3.2 -9.4 0 0 0 0 1 5
1706 2 3 -9.2 0 0 0 0 1 5
1707 2 3.2 -9.2 0 0 0 0 1 5
1658 2 3.4 -9.4 0 0 0 0 1 5
1659 2 3.6 -9.4 0 0 0 0 1 5
1708 2 3.4 -9.2 0 0 0 0 1 5
1709 2 3.6 -9.2 0 0 0 0 1 5
1660 2 3.8 -9.4 0 0 0 0 1 5
1710 2 3.8 -9.2 0 0 0 0 1 5
1661 2 4 -9.4 0 0 0 0 1 5
1711 2 4 -9.2 0 0 0 0 1 5
1662 2 4.2 -9.4 0 0 0 0 1 5
1712 2 4.2 -9.2 0 0 0 0 1 5
1663 2 4.4 -9.4 0 0 0 0 1 5
1664 2 4.6 -9.4 0 0 0 0 1 5
1713 2 4.4 -9.2 0 0 0 0 1 5
1714 2 4.6 -9.2 0 0 0 0 1 5
1665 2 4.8 -9.4 0 0 0 0 1 5
1666 2 5 -9.4 0 0 0 0 1 5
1715 2 4.8 -9.2 0 0 0 0 1 5
1716 2 5 -9.2 0 0 0 0 1 5
1667 2 5.2 -9.4 0 0 0 0 1 5
1668 2 5.4 -9.4 0 0 0 0 1 5
1717 2 5.2 -9.2 0 0 0 0 1 5
1718 2 5.4 -9.2 0 0 0 0 1 5
1669 2 5.6 -9.4 0 0 0 0 1 5
1670 2 5.8 -9.4 0 0 0 0 1 5
1719 2 5.6 -9.2 0 0 0 0 1 5
1720 2 5.8 -9.2 0 0 0 0 1 5
1671 2 6 -9.4 0 0 0 0 1 5
1672 2 6.2 -9.4 0 0 0 0 1 5
1721 2 6 -9.2 0 0 0 0 1 5
1722 2 6.2 -9.2 0 0 0 0 1 5
1673 2 6.4 -9.4 0 0 0 0 1 5
1674 2 6.6 -9.4 0 0 0 0 1 5
1723 2 6.4 -9.2 0 0 0 0 1 5
1724 2 6.6 -9.2 0 0 0 0 1 5
1675 2 6.8 -9.4 0 0 0 0 1 5
1676 2 7 -9.4 0 0 0 0 1 5
1725 2 6.8 -9.2 0 0 0 0 1 5
1726 2 7 -9.2 0 0 0 0 1 5
1677 2 7.2 -9.4 0 0 0 0 1 5
1727 2 7.2 -9.2 0 0 0 0 1 5
1678 2 7.4 -9.4 0 0 0 0 1 5
1679 2 7.6 -9.4 0 0 0 0 1 5
1728 2 7.4 -9.2 0 0 0 0 1 5
1729 2 7.6 -9.2 0 0 0 0 1 5
1680 2 7.8 -9.4 0 0 0 0 1 5
1681 2 8 -9.4 0 0 0 0 1 5
1730 2 7.8 -9.2 0 0 0 0 1 5
1731 2 8 -9.2 0 0 0 0 1 5
1682 2 8.2 -9.4 0 0 0 0 1 5
1683 2 8.4 -9.4 0 0 0 0 1 5
1732 2 8.2 -9.2 0 0 0 0 1 5
1733 2 8.4 -9.2 0 0 0 0 1 5
1684 2 8.6 -9.4 0 0 0 0 1 5
1685 2 8.8 -9.4 0 0 0 0 1 5
1734 2 8.6 -9.2 0 0 0 0 1 5
1735 2 8.8 -9.2 0 0 0 0 1 5
1686 2 9 -9.4 0 0 0 0 1 5
1687 2 9.2 -9.4 0 0 0 0 1 5
1736 2 9 -9.2 0 0 0 0 1 5
1737 2 9.2 -9.2 0 0 0 0 1 5
1688 2 9.4 -9.4 0 0 0 0 1 5
1689 2 9.6 -9.4 0 0 0 0 1 5
1738 2 9.4 -9.2 0 0 0 0 1 5
1739 2 9.6 -9.2 0 0 0 0 1 5
1690 2 9.8 -9.4 0 0 0 0 1 5
1740 2 9.8 -9.2 0 0 0 0 1 5
1691 2 10 -9.4 0 0 0 0 1 5
1741 2 10 -9.2 0 0 0 0 1 5
1692 2 10.2 -9.4 0 0 0 0 1 5
1742 2 10.2 -9.2 0 0 0 0 1 5
1693 2 10.4 -9.4 0 0 0 0 1 5
1743 2 10.4 -9.2 0 0 0 0 1 5
1694 2 10.6 -9.4 0 0 0 0 1 5
1744 2 10.6 -9.2 0 0 0 0 1 5
1695 2 10.8 -9.4 0 0 0 0 1 5
1745 2 10.8 -9.2 0 0 0 0 1 5
1751 2 2 -9 0 0 0 0 1 5
1801 2 2 -8.8 0 0 0 0 1 5
1752 2 2.2 -9 0 0 0 0 1 5
1753 2 2.4 -9 0 0 0 0 1 5
1802 2 2.2 -8.8 0 0 0 0 1 5
1803 2 2.4 -8.8 0 0 0 0 1 5
1754 2 2.6 -9 0 0 0 0 1 5
1755 2 2.8 -9 0 0 0 0 1 5
1804 2 2.6 -8.8 0 0 0 0 1 5
1805 2 2.8 -8.8 0 0 0 0 1 5
1756 2 3 -9 0 0 0 0 1 5
1757 2 3.2 -9 0 0 0 0 1 5
1806 2 3 -8.8 0 0 0 0 1 5
1807 2 3.2 -8.8 0 0 0 0 1 5
1758 2 3.4 -9 0 0 0 0 1 5
1759 2 3.6 -9 0 0 0 0 1 5
1808 2 3.4 -8.8 0 0 0 0 1 5
1809 2 3.6 -8.8 0 0 0 0 1 5
1760 2 3.8 -9 0 0 0 0 1 5
1810 2 3.8 -8.8 0 0 0 0 1 5
1761 2 4 -9 0 0 0 0 1 5
1811 2 4 -8.8 0 0 0 0 1 5
1762 2 4.2 -9 0 0 0 0 1 5
1812 2 4.2 -8.8 0 0 0 0 1 5
1763 2 4.4 -9 0 0 0 0 1 5
1764 2 4.6 -9 0 0 0 0 1 5
1813 2 4.4 -8.8 0 0 0 0 1 5
1814 2 4.6 -8.8 0 0 0 0 1 5
1765 2 4.8 -9 0 0 0 0 1 5
1766 2 5 -9 0 0 0 0 1 5
1815 2 4.8 -8.8 0 0 0 0 1 5
1816 2 5 -8.8 0 0 0 0 1 5
1767 2 5.2 -9 0 0 0 0 1 5
1768 2 5.4 -9 0 0 0 0 1 5
1817 2 5.2 -8.8 0 0 0 0 1 5
1818 2 5.4 -8.8 0 0 0 0 1 5
1769 2 5.6 -9 0 0 0 0 1 5
1770 2 5.8 -9 0 0 0 0 1 5
1819 2 5.6 -8.8 0 0 0 0 1 5
1820 2 5.8 -8.8 0 0 0 0 1 5
1771 2 6 -9 0 0 0 0 1 5
1772 2 6.2 -9 0 0 0 0 1 5
1821 2 6 -8.8 0 0 0 0 1 5
1822 2 6.2 -8.8 0 0 0 0 1 5
1773 2 6.4 -9 0 0 0 0 1 5
1774 2 6.6 -9 0 0 0 0 1 5
1823 2 6.4 -8.8 0 0 0 0 1 5
1824 2 6.6 -8.8 0 0 0 0 1 5
1775 2 6.8 -9 0 0 0 0 1 5
1776 2 7 -9 0 0 0 0 1 5
1825 2 6.8 -8.8 0 0 0 0 1 5
1826 2 7 -8.8 0 0 0 0 1 5
1777 2 7.2 -9 0 0 0 0 1 5
1827 2 7.2 -8.8 0 0 0 0 1 5
1778 2 7.4 -9 0 0 0 0 1 5
1779 2 7.6 -9 0 0 0 0 1 5
1828 2 7.4 -8.8 0 0 0 0 1 5
1829 2 7.6 -8.8 0 0 0 0 1 5
1780 2 7.8 -9 0 0 0 0 1 5
1781 2 8 -9 0 0 0 0 1 5
1830 2 7.8 -8.8 0 0 0 0 1 5
1831 2 8 -8.8 0 0 0 0 1 5
1782 2 8.2 -9 0 0 0 0 1 5
1783 2 8.4 -9 0 0 0 0 1 5
1832 2 8.2 -8.8 0 0 0 0 1 5
1833 2 8.4 -8.8 0 0 0 0 1 5
1784 2 8.6 -9 0 0 0 0 1 5
1785 2 8.8 -9 0 0 0 0 1 5
1834 2 8.6 -8.8 0 0 0 0 1 5
1835 2 8.8 -8.8 0 0 0 0 1 5
1786 2 9 -9 0 0 0 0 1 5
1787 2 9.2 -9 0 0 0 0 1 5
1836 2 9 -8.8 0 0 0 0 1 5
1837 2 9.2 -8.8 0 0 0 0 1 5
1788 2 9.4 -9 0 0 0 0 1 5
1789 2 9.6 -9 0 0 0 0 1 5
1838 2 9.4 -8.8 0 0 0 0 1 5
1839 2 9.6 -8.8 0 0 0 0 1 5
1790 2 9.8 -9 0 0 0 0 1 5
1840 2 9.8 -8.8 0 0 0 0 1 5
1791 2 10 -9 0 0 0 0 1 5
1841 2 10 -8.8 0 0 0 0 1 5
1792 2 10.2 -9 0 0 0 0 1 5
1842 2 10.2 -8.8 0 0 0 0 1 5
1793 2 10.4 -9 0 0 0 0 1 5
1843 2 10.4 -8.8 0 0 0 0 1 5
1794 2 10.6 -9 0 0 0 0 1 5
1844 2 10.6 -8.8 0 0 0 0 1 5
1795 2 10.8 -9 0 0 0 0 1 5
1845 2 10.8 -8.8 0 0 0 0 1 5
1851 2 2 -8.6 0 0 0 0 1 5
1901 2 2 -8.4 0 0 0 0 1 5
1852 2 2.2 -8.6 0 0 0 0 1 5
1853 2 2.4 -8.6 0 0 0 0 1 5
1902 2 2.2 -8.4 0 0 0 0 1 5
1903 2 2.4 -8.4 0 0 0 0 1 5
1854 2 2.6 -8.6 0 0 0 0 1 5
1855 2 2.8 -8.6 0 0 0 0 1 5
1904 2 2.6 -8.4 0 0 0 0 1 5
1905 2 2.8 -8.4 0 0 0 0 1 5
1856 2 3 -8.6 0 0 0 0 1 5
1857 2 3.2 -8.6 0 0 0 0 1 5
1906 2 3 -8.4 0 0 0 0 1 5
1907 2 3.2 -8.4 0 0 0 0 1 5
1858 2 3.4 -8.6 0 0 0 0 1 5
1859 2 3.6 -8.6 0 0 0 0 1 5
1908 2 3.4 -8.4 0 0 0 0 1 5
1909 2 3.6 -8.4 0 0 0 0 1 5
1860 2 3.8 -8.6 0 0 0 0 1 5
1910 2 3.8 -8.4 0 0 0 0 1 5
1861 2 4 -8.6 0 0 0 0 1 5
1911 2 4 -8.4 0 0 0 0 1 5
1862 2 4.2 -8.6 0 0 0 0 1 5
1912 2 4.2 -8.4 0 0 0 0 1 5
1863 2 4.4 -8.6 0 0 0 0 1 5
1864 2 4.6 -8.6 0 0 0 0 1 5
1913 2 4.4 -8.4 0 0 0 0 1 5
1914 2 4.6 -8.4 0 0 0 0 1 5
1865 2 4.8 -8.6 0 0 0 0 1 5
1866 2 5 -8.6 0 0 0 0 1 5
1915 2 4.8 -8.4 0 0 0 0 1 5
1916 2 5 -8.4 0 0 0 0 1 5
1867 2 5.2 -8.6 0 0 0 0 1 5
1868 2 5.4 -8.6 0 0 0 0 1 5
1917 2 5.2 -8.4 0 0 0 0 1 5
1918 2 5.4 -8.4 0 0 0 0 1 5
1869 2 5.6 -8.6 0 0 0 0 1 5
1870 2 5.8 -8.6 0 0 0 0 1 5
1919 2 5.6 -8.4 0 0 0 0 1 5
1920 2 5.8 -8.4 0 0 0 0 1 5
1871 2 6 -8.6 0 0 0 0 1 5
1872 2 6.2 -8.6 0 0 0 0 1 5
1921 2 6 -8.4 0 0 0 0 1 5
1922 2 6.2 -8.4 0 0 0 0 1 5
1873 2 6.4 -8.6 0 0 0 0 1 5
1874 2 6.6 -8.6 0 0 0 0 1 5
1923 2 6.4 -8.4 0 0 0 0 1 5
1924 2 6.6 -8.4 0 0 0 0 1 5
1875 2 6.8 -8.6 0 0 0 0 1 5
1876 2 7 -8.6 0 0 0 0 1 5
1925 2 6.8 -8.4 0 0 0 0 1 5
1926 2 7 -8.4 0 0 0 0 1 5
1877 2 7.2 -8.6 0 0 0 0 1 5
1927 2 7.2 -8.4 0 0 0 0 1 5
1878 2 7.4 -8.6 0 0 0 0 1 5
1879 2 7.6 -8.6 0 0 0 0 1 5
1928 2 7.4 -8.4 0 0 0 0 1 5
1929 2 7.6 -8.4 0 0 0 0 1 5
1880 2 7.8 -8.6 0 0 0 0 1 5
1881 2 8 -8.6 0 0 0 0 1 5
1930 2 7.8 -8.4 0 0 0 0 1 5
1931 2 8 -8.4 0 0 0 0 1 5
1882 2 8.2 -8.6 0 0 0 0 1 5
1883 2 8.4 -8.6 0 0 0 0 1 5
1932 2 8.2 -8.4 0 0 0 0 1 5
1933 2 8.4 -8.4 0 0 0 0 1 5
1884 2 8.6 -8.6 0 0 0 0 1 5
1885 2 8.8 -8.6 0 0 0 0 1 5
1934 2 8.6 -8.4 0 0 0 0 1 5
1935 2 8.8 -8.4 0 0 0 0 1 5
1886 2 9 -8.6 0 0 0 0 1 5
1887 2 9.2 -8.6 0 0 0 0 1 5
1936 2 9 -8.4 0 0 0 0 1 5
1937 2 9.2 -8.4 0 0 0 0 1 5
1888 2 9.4 -8.6 0 0 0 0 1 5
1889 2 9.6 -8.6 0 0 0 0 1 5
1938 2 9.4 -8.4 0 0 0 0 1 5
1939 2 9.6 -8.4 0 0 0 0 1 5
1890 2 9.8 -8.6 0 0 0 0 1 5
1940 2 9.8 -8.4 0 0 0 0 1 5
1891 2 10 -8.6 0 0 0 0 1 5
1941 2 10 -8.4 0 0 0 0 1 5
1892 2 10.2 -8.6 0 0 0 0 1 5
1942 2 10.2 -8.4 0 0 0 0 1 5
1893 2 10.4 -8.6 0 0 0 0 1 5
1943 2 10.4 -8.4 0 0 0 0 1 5
1894 2 10.6 -8.6 0 0 0 0 1 5
1944 2 10.6 -8.4 0 0 0 0 1 5
1895 2 10.8 -8.6 0 0 0 0 1 5
1945 2 10.8 -8.4 0 0 0 0 1 5
1951 2 2 -8.2 0 0 0 0 1 5
2001 2 2 -8 0 0 0 0 1 5
1952 2 2.2 -8.2 0 0 0 0 1 5
1953 2 2.4 -8.2 0 0 0 0 1 5
2002 2 2.2 -8 0 0 0 0 1 5
2003 2 2.4 -8 0 0 0 0 1 5
1954 2 2.6 -8.2 0 0 0 0 1 5
1955 2 2.8 -8.2 0 0 0 0 1 5
2004 2 2.6 -8 0 0 0 0 1 5
2005 2 2.8 -8 0 0 0 0 1 5
1956 2 3 -8.2 0 0 0 0 1 5
1957 2 3.2 -8.2 0 0 0 0 1 5
2006 2 3 -8 0 0 0 0 1 5
2007 2 3.2 -8 0 0 0 0 1 5
1958 2 3.4 -8.2 0 0 0 0 1 5
1959 2 3.6 -8.2 0 0 0 0 1 5
2008 2 3.4 -8 0 0 0 0 1 5
2009 2 3.6 -8 0 0 0 0 1 5
1960 2 3.8 -8.2 0 0 0 0 1 5
2010 2 3.8 -8 0 0 0 0 1 5
1961 2 4 -8.2 0 0 0 0 1 5
2011 2 4 -8 0 0 0 0 1 5
1962 2 4.2 -8.2 0 0 0 0 1 5
2012 2 4.2 -8 0 0 0 0 1 5
1963 2 4.4 -8.2 0 0 0 0 1 5
1964 2 4.6 -8.2 0 0 0 0 1 5
2013 2 4.4 -8 0 0 0 0 1 5
2014 2 4.6 -8 0 0 0 0 1 5
1965 2 4.8 -8.2 0 0 0 0 1 5
1966 2 5 -8.2 0 0 0 0 1 5
2015 2 4.8 -8 0 0 0 0 1 5
2016 2 5 -8 0 0 0 0 1 5
1967 2 5.2 -8.2 0 0 0 0 1 5
1968 2 5.4 -8.2 0 0 0 0 1 5
2017 2 5.2 -8 0 0 0 0 1 5
2018 2 5.4 -8 0 0 0 0 1 5
1969 2 5.6 -8.2 0 0 0 0 1 5
1970 2 5.8 -8.2 0 0 0 0 1 5
2019 2 5.6 -8 0 0 0 0 1 5
2020 2 5.8 -8 0 0 0 0 1 5
1971 2 6 -8.2 0 0 0 0 1 5
1972 2 6.2 -8.2 0 0 0 0 1 5
2021 2 6 -8 0 0 0 0 1 5
2022 2 6.2 -8 0 0 0 0 1 5
1973 2 6.4 -8.2 0 0 0 0 1 5
1974 2 6.6 -8.2 0 0 0 0 1 5
2023 2 6.4 -8 0 0 0 0 1 5
2024 2 6.6 -8 0 0 0 0 1 5
1975 2 6.8 -8.2 0 0 0 0 1 5
1976 2 7 -8.2 0 0 0 0 1 5
2025 2 6.8 -8 0 0 0 0 1 5
2026 2 7 -8 0 0 0 0 1 5
1977 2 7.2 -8.2 0 0 0 0 1 5
2027 2 7.2 -8 0 0 0 0 1 5
1978 2 7.4 -8.2 0 0 0 0 1 5
1979 2 7.6 -8.2 0 0 0 0 1 5
2028 2 7.4 -8 0 0 0 0 1 5
2029 2 7.6 -8 0 0 0 0 1 5
1980 2 7.8 -8.2 0 0 0 0 1 5
1981 2 8 -8.2 0 0 0 0 1 5
2030 2 7.8 -8 0 0 0 0 1 5
2031 2 8 -8 0 0 0 0 1 5
1982 2 8.2 -8.2 0 0 0 0 1 5
1983 2 8.4 -8.2 0 0 0 0 1 5
2032 2 8.2 -8 0 0 0 0 1 5
2033 2 8.4 -8 0 0 0 0 1 5
1984 2 8.6 -8.2 0 0 0 0 1 5
1985 2 8.8 -8.2 0 0 0 0 1 5
2034 2 8.6 -8 0 0 0 0 1 5
2035 2 8.8 -8 0 0 0 0 1 5
1986 2 9 -8.2 0 0 0 0 1 5
1987 2 9.2 -8.2 0 0 0 0 1 5
2036 2 9 -8 0 0 0 0 1 5
2037 2 9.2 -8 0 0 0 0 1 5
1988 2 9.4 -8.2 0 0 0 0 1 5
1989 2 9.6 -8.2 0 0 0 0 1 5
2038 2 9.4 -8 0 0 0 0 1 5
2039 2 9.6 -8 0 0 0 0 1 5
1990 2 9.8 -8.2 0 0 0 0 1 5
2040 2 9.8 -8 0 0 0 0 1 5
1991 2 10 -8.2 0 0 0 0 1 5
2041 2 10 -8 0 0 0 0 1 5
1992 2 10.2 -8.2 0 0 0 0 1 5
2042 2 10.2 -8 0 0 0 0 1 5
1993 2 10.4 -8.2 0 0 0 0 1 5
2043 2 10.4 -8 0 0 0 0 1 5
1994 2 10.6 -8.2 0 0 0 0 1 5
2044 2 10.6 -8 0 0 0 0 1 5
1995 2 10.8 -8.2 0 0 0 0 1 5
2045 2 10.8 -8 0 0 0 0 1 5
2051 2 2 -7.8 0 0 0 0 1 5
2101 2 2 -7.6 0 0 0 0 1 5
2052 2 2.2 -7.8 0 0 0 0 1 5
2053 2 2.4 -7.8 0 0 0 0 1 5
2102 2 2.2 -7.6 0 0 0 0 1 5
2103 2 2.4 -7.6 0 0 0 0 1 5
2054 2 2.6 -7.8 0 0 0 0 1 5
2055 2 2.8 -7.8 0 0 0 0 1 5
2104 2 2.6 -7.6 0 0 0 0 1 5
2105 2 2.8 -7.6 0 0 0 0 1 5
2056 2 3 -7.8 0 0 0 0 1 5
2057 2 3.2 -7.8 0 0 0 0 1 5
2106 2 3 -7.6 0 0 0 0 1 5
2107 2 3.2 -7.6 0 0 0 0 1 5
2058 2 3.4 -7.8 0 0 0 0 1 5
2059 2 3.6 -7.8 0 0 0 0 1 5
2108 2 3.4 -7.6 0 0 0 0 1 5
2109 2 3.6 -7.6 0 0 0 0 1 5
2060 2 3.8 -7.8 0 0 0 0 1 5
2110 2 3.8 -7.6 0 0 0 0 1 5
2061 2 4 -7.8 0 0 0 0 1 5
2111 2 4 -7.6 0 0 0 0 1 5
2062 2 4.2 -7.8 0 0 0 0 1 5
2112 2 4.2 -7.6 0 0 0 0 1 5
2063 2 4.4 -7.8 0 0 0 0 1 5
2064 2 4.6 -7.8 0 0 0 0 1 5
2113 2 4.4 -7.6 0 0 0 0 1 5
2114 2 4.6 -7.6 0 0 0 0 1 5
2065 2 4.8 -7.8 0 0 0 0 1 5
2066 2 5 -7.8 0 0 0 0 1 5
2115 2 4.8 -7.6 0 0 0 0 1 5
2116 2 5 -7.6 0 0 0 0 1 5
2067 2 5.2 -7.8 0 0 0 0 1 5
2068 2 5.4 -7.8 0 0 0 0 1 5
2117 2 5.2 -7.6 0 0 0 0 1 5
2118 2 5.4 -7.6 0 0 0 0 1 5
2069 2 5.6 -7.8 0 0 0 0 1 5
2070 2 5.8 -7.8 0 0 0 0 1 5
2119 2 5.6 -7.6 0 0 0 0 1 5
2120 2 5.8 -7.6 0 0 0 0 1 5
2071 2 6 -7.8 0 0 0 0 1 5
2072 2 6.2 -7.8 0 0 0 0 1 5
2121 2 6 -7.6 0 0 0 0 1 5
2122 2 6.2 -7.6 0 0 0 0 1 5
2073 2 6.4 -7.8 0 0 0 0 1 5
2074 2 6.6 -7.8 0 0 0 0 1 5
2123 2 6.4 -7.6 0 0 0 0 1 5
2124 2 6.6 -7.6 0 0 0 0 1 5
2075 2 6.8 -7.8 0 0 0 0 1 5
2076 2 7 -7.8 0 0 0 0 1 5
2125 2 6.8 -7.6 0 0 0 0 1 5
2126 2 7 -7.6 0 0 0 0 1 5
2077 2 7.2 -7.8 0 0 0 0 1 5
2127 2 7.2 -7.6 0 0 0 0 1 5
2078 2 7.4 -7.8 0 0 0 0 1 5
2079 2 7.6 -7.8 0 0 0 0 1 5
2128 2 7.4 -7.6 0 0 0 0 1 5
2129 2 7.6 -7.6 0 0 0 0 1 5
2080 2 7.8 -7.8 0 0 0 0 1 5
2081 2 8 -7.8 0 0 0 0 1 5
2130 2 7.8 -7.6 0 0 0 0 1 5
2131 2 8 -7.6 0 0 0 0 1 5
2082 2 8.2 -7.8 0 0 0 0 1 5
2083 2 8.4 -7.8 0 0 0 0 1 5
2132 2 8.2 -7.6 0 0 0 0 1 5
2133 2 8.4 -7.6 0 0 0 0 1 5
2084 2 8.6 -7.8 0 0 0 0 1 5
2085 2 8.8 -7.8 0 0 0 0 1 5
2134 2 8.6 -7.6 0 0 0 0 1 5
2135 2 8.8 -7.6 0 0 0 0 1 5
2086 2 9 -7.8 0 0 0 0 1 5
2087 2 9.2 -7.8 0 0 0 0 1 5
2136 2 9 -7.6 0 0 0 0 1 5
2137 2 9.2 -7.6 0 0 0 0 1 5
2088 2 9.4 -7.8 0 0 0 0 1 5
2089 2 9.6 -7.8 0 0 0 0 1 5
2138 2 9.4 -7.6 0 0 0 0 1 5
2139 2 9.6 -7.6 0 0 0 0 1 5
2090 2 9.8 -7.8 0 0 0 0 1 5
2140 2 9.8 -7.6 0 0 0 0 1 5
2091 2 10 -7.8 0 0 0 0 1 5
2141 2 10 -7.6 0 0 0 0 1 5
2092 2 10.2 -7.8 0 0 0 0 1 5
2142 2 10.2 -7.6 0 0 0 0 1 5
2093 2 10.4 -7.8 0 0 0 0 1 5
2143 2 10.4 -7.6 0 0 0 0 1 5
2094 2 10.6 -7.8 0 0 0 0 1 5
2144 2 10.6 -7.6 0 0 0 0 1 5
2095 2 10.8 -7.8 0 0 0 0 1 5
2145 2 10.8 -7.6 0 0 0 0 1 5
2151 2 2 -7.4 0 0 0 0 1.00313 5
2201 2 2 -7.2 0 0 0 0 1.00187 5
2152 2 2.2 -7.4 0 0 0 0 0.997838 5
2153 2 2.4 -7.4 0 0 0 0 1.00128 5
2202 2 2.2 -7.2 0 0 0 0 1.00012 5
2203 2 2.4 -7.2 0 0 0 0 1.00035 5
2154 2 2.6 -7.4 0 0 0 0 0.997948 5
2155 2 2.8 -7.4 0 0 0 0 0.998057 5
2204 2 2.6 -7.2 0 0 0 0 0.999929 5
2205 2 2.8 -7.2 0 0 0 0 0.999148 5
2156 2 3 -7.4 0 0 0 0 0.99865 5
2157 2 3.2 -7.4 0 0 0 0 1.0053 5
2206 2 3 -7.2 0 0 0 0 0.999892 5
2207 2 3.2 -7.2 0 0 0 0 1.00192 5
2158 2 3.4 -7.4 0 0 0 0 0.998435 5
2159 2 3.6 -7.4 0 0 0 0 1.00132 5
2208 2 3.4 -7.2 0 0 0 0 0.999456 5
2209 2 3.6 -7.2 0 0 0 0 1.00075 5
2160 2 3.8 -7.4 0 0 0 0 1.01786 5
2210 2 3.8 -7.2 0 0 0 0 1.01028 5
2161 2 4 -7.4 0 0 0 0 1.02589 5
2211 2 4 -7.2 0 0 0 0 1.02007 5
2162 2 4.2 -7.4 0 0 0 0 1.03127 5
2212 2 4.2 -7.2 0 0 0 0 1.0285 5
2163 2 4.4 -7.4 0 0 0 0 1.02994 5
2164 2 4.6 -7.4 0 0 0 0 1.02278 5
2213 2 4.4 -7.2 0 0 0 0 1.02893 5
2214 2 4.6 -7.2 0 0 0 0 1.02356 5
2165 2 4.8 -7.4 0 0 0 0 1.02234 5
2166 2 5 -7.4 0 0 0 0 1.02212 5
2215 2 4.8 -7.2 0 0 0 0 1.0228 5
2216 2 5 -7.2 0 0 0 0 1.02271 5
2167 2 5.2 -7.4 0 0 0 0 1.02236 5
2168 2 5.4 -7.4 0 0 0 0 1.02246 5
2217 2 5.2 -7.2 0 0 0 0 1.02279 5
2218 2 5.4 -7.2 0 0 0 0 1.02289 5
2169 2 5.6 -7.4 0 0 0 0 1.02252 5
2170 2 5.8 -7.4 0 0 0 0 1.0226 5
2219 2 5.6 -7.2 0 0 0 0 1.02289 5
2220 2 5.8 -7.2 0 0 0 0 1.02295 5
2171 2 6 -7.4 0 0 0 0 1.02263 5
2172 2 6.2 -7.4 0 0 0 0 1.02269 5
2221 2 6 -7.2 0 0 0 0 1.02297 5
2222 2 6.2 -7.2 0 0 0 0 1.02307 5
2173 2 6.4 -7.4 0 0 0 0 1.02289 5
2174 2 6.6 -7.4 0 0 0 0 1.02302 5
2223 2 6.4 -7.2 0 0 0 0 1.02321 5
2224 2 6.6 -7.2 0 0 0 0 1.02333 5
2175 2 6.8 -7.4 0 0 0 0 1.02316 5
2176 2 7 -7.4 0 0 0 0 1.023 5
2225 2 6.8 -7.2 0 0 0 0 1.02342 5
2226 2 7 -7.2 0 0 0 0 1.02346 5
2177 2 7.2 -7.4 0 0 0 0 1.02312 5
2227 2 7.2 -7.2 0 0 0 0 1.02357 5
2178 2 7.4 -7.4 0 0 0 0 1.02328 5
2179 2 7.6 -7.4 0 0 0 0 1.02337 5
2228 2 7.4 -7.2 0 0 0 0 1.02367 5
2229 2 7.6 -7.2 0 0 0 0 1.02369 5
2180 2 7.8 -7.4 0 0 0 0 1.02318 5
2181 2 8 -7.4 0 0 0 0 1.02321 5
2230 2 7.8 -7.2 0 0 0 0 1.02365 5
2231 2 8 -7.2 0 0 0 0 1.02368 5
2182 2 8.2 -7.4 0 0 0 0 1.02328 5
2183 2 8.4 -7.4 0 0 0 0 1.02336 5
2232 2 8.2 -7.2 0 0 0 0 1.02373 5
2233 2 8.4 -7.2 0 0 0 0 1.02374 5
2184 2 8.6 -7.4 0 0 0 0 1.02348 5
2185 2 8.8 -7.4 0 0 0 0 1.02343 5
2234 2 8.6 -7.2 0 0 0 0 1.02374 5
2235 2 8.8 -7.2 0 0 0 0 1.02371 5
2186 2 9 -7.4 0 0 0 0 1.02349 5
2187 2 9.2 -7.4 0 0 0 0 1.02328 5
2236 2 9 -7.2 0 0 0 0 1.02369 5
2237 2 9.2 -7.2 0 0 0 0 1.02365 5
2188 2 9.4 -7.4 0 0 0 0 1.02326 5
2189 2 9.6 -7.4 0 0 0 0 1.02321 5
2238 2 9.4 -7.2 0 0 0 0 1.02363 5
2239 2 9.6 -7.2 0 0 0 0 1.02361 5
2190 2 9.8 -7.4 0 0 0 0 1.02328 5
2240 2 9.8 -7.2 0 0 0 0 1.02363 5
2191 2 10 -7.4 0 0 0 0 1.02329 5
2241 2 10 -7.2 0 0 0 0 1.02359 5
2192 2 10.2 -7.4 0 0 0 0 1.02331 5
2242 2 10.2 -7.2 0 0 0 0 1.02356 5
2193 2 10.4 -7.4 0 0 0 0 1.02325 5
2243 2 10.4 -7.2 0 0 0 0 1.02352 5
2194 2 10.6 -7.4 0 0 0 0 1.02322 5
2244 2 10.6 -7.2 0 0 0 0 1.02346 5
2195 2 10.8 -7.4 0 0 0 0 1.02316 5
2245 2 10.8 -7.2 0 0 0 0 1.02342 5
14982 1 0.58135 -6.73521 0.02 0 0 0 1 2
14985 1 0.779836 -6.75894 0.02 0 0 0 1 2
14986 1 0.989446 -6.75979 0.02 0 0 0 1 2
14990 1 1.18239 -6.73835 0.02 0 0 0 1 2
14991 1 1.36709 -6.7321 0.02 0 -8.06398e-08 -3.85323e-08 1 2
14992 1 1.5595 -6.76354 0.02 0 -0.000139324 -7.09903e-05 1 2
14994 1 1.75927 -6.7443 0.02 0 -0.00159566 -0.000510762 1 2
14995 1 1.95435 -6.73455 0.02 0 -0.00317631 -0.000716592 1 2
2251 2 2 -7 0 0 0 0 1.00174 5
14996 1 2.14767 -6.74905 0.02 0 -0.00336907 -0.000599764 1 2
14997 1 2.3455 -6.74634 0.02 0 -0.00280886 -0.000516091 1 2
14300 1 2.55361 -6.75746 0.02 0 -0.00299978 -0.000547367 1 2
14301 1 2.76339 -6.75211 0.02 0 -0.0029291 -0.000569541 1 2
2252 2 2.2 -7 0 0 0 0 1.00001 5
2253 2 2.4 -7 0 0 0 0 0.999921 5
14302 1 2.97119 -6.74445 0.02 0 -0.0028127 -0.000581333 1 2
14303 1 3.17388 -6.74367 0.02 0 -0.00290572 -0.000615201 1 2
2254 2 2.6 -7 0 0 0 0 0.999905 5
2255 2 2.8 -7 0 0 0 0 0.999585 5
14304 1 3.37492 -6.76853 0.02 0 -0.00336248 -0.000487675 1 2
14305 1 3.57432 -6.73669 0.02 0 -0.00276754 -0.000282805 1 2
14306 1 3.76868 -6.75579 0.02 0 -0.00572653 -1.73239e-05 1 2
2256 2 3 -7 0 0 0 0 1.00008 5
2257 2 3.2 -7 0 0 0 0 1.00093 5
14307 1 3.96981 -6.74329 0.02 0 -0.0104032 0.000981708 1 2
14309 1 3.99975 -6.59186 0.02 0 -0.00335414 0.000693569 1.02093 2
14308 1 4.02564 -6.82442 0.00380216 -0.000800414 -2.87734e-05 8.16303e-06 1.03207 0
2258 2 3.4 -7 0 0 0 0 1 5
2259 2 3.6 -7 0 0 0 0 1.00144 5
2260 2 3.8 -7 0 0 0 0 1.00803 5
13615 1 4.13963 -6.6741 0.00975629 0.00195121 -0.00020006 6.83763e-05 1.03083 0
13616 1 4.26037 -6.76569 0.0055142 -5.82611e-05 -6.54088e-05 2.52842e-05 1.03338 0
13617 1 4.38934 -6.6807 0.00840383 0.000928018 -3.27526e-05 -2.42956e-06 1.02764 0
2261 2 4 -7 0 0 0 0 1.01638 5
2262 2 4.2 -7 0 0 0 0 1.02594 5
13626 1 4.39382 -6.52037 0.0120846 0.00249402 -1.8781e-05 -1.56543e-05 1.02774 0
13619 1 4.51622 -6.72438 0.00674749 0.000474928 -4.95827e-06 -5.11978e-06 1.02502 0
13621 1 4.71206 -6.57685 0.00908681 0.0013705 -3.03691e-06 -1.09725e-05 1.02375 0
13622 1 4.65104 -6.75599 0.00502253 0.000199634 -6.89396e-07 -5.64524e-06 1.02436 0
2263 2 4.4 -7 0 0 0 0 1.02849 5
2264 2 4.6 -7 0 0 0 0 1.02436 5
13623 1 4.86296 -6.6023 0.00741117 0.000921064 -2.00457e-07 -1.09637e-05 1.02353 0
12903 1 4.81227 -6.78359 0.00355601 -5.32178e-05 2.28191e-06 -6.37308e-06 1.02442 0
12905 1 4.9794 -6.69681 0.00459061 0.000339616 3.3511e-06 -8.8562e-06 1.02342 0
12907 1 5.11176 -6.77109 0.00273704 -9.15215e-05 5.33888e-06 -7.88359e-06 1.02383 0
2265 2 4.8 -7 0 0 0 0 1.02329 5
2266 2 5 -7 0 0 0 0 1.02317 5
12909 1 5.22876 -6.61909 0.00516367 0.000496057 2.63502e-06 -1.15975e-05 1.02319 0
12911 1 5.38877 -6.61485 0.00470194 0.000424825 8.15303e-07 -1.09674e-05 1.02309 0
12207 1 5.55295 -6.59895 0.00451738 0.000412578 -2.3327e-06 -1.01417e-05 1.02303 0
12210 1 5.31656 -6.79268 0.00211697 -0.000151547 4.25378e-06 -7.19246e-06 1.02387 0
11540 1 5.52835 -6.7659 0.00210001 -7.4854e-05 1.72552e-06 -6.30177e-06 1.0236 0
2267 2 5.2 -7 0 0 0 0 1.02321 5
2268 2 5.4 -7 0 0 0 0 1.02324 5
12212 1 5.7228 -6.60703 0.00400541 0.000351962 -5.58872e-06 -8.32852e-06 1.02303 0
12214 1 5.90834 -6.58619 0.00396004 0.00032892 -9.49221e-06 -6.95271e-06 1.02307 0
11552 1 5.72009 -6.77714 0.00175909 -0.000132859 -8.77447e-07 -4.43816e-06 1.02374 0
10855 1 5.90116 -6.74366 0.00194401 -5.26152e-05 -3.8802e-06 -3.66635e-06 1.02353 0
2269 2 5.6 -7 0 0 0 0 1.02322 5
2270 2 5.8 -7 0 0 0 0 1.02323 5
10858 1 6.05969 -6.72503 0.00199957 -2.3785e-05 -6.1452e-06 -2.84957e-06 1.02343 0
10169 1 6.20873 -6.77423 0.00143839 -0.000175416 -5.48373e-06 -1.45173e-06 1.02388 0
10172 1 6.38358 -6.73673 0.00170667 -6.14035e-05 -7.59267e-06 -1.38314e-06 1.02367 0
2271 2 6 -7 0 0 0 0 1.02324 5
2272 2 6.2 -7 0 0 0 0 1.02335 5
11543 1 6.25699 -6.59384 0.00340552 0.00025993 -1.30175e-05 -4.11338e-06 1.02316 0
3109 1 6.55179 -6.76366 0.00141158 -0.000147652 -6.83855e-06 -7.18365e-07 1.02394 0
3113 1 6.73735 -6.762 0.00137897 -0.000148259 -6.74052e-06 -4.73822e-07 1.02406 0
2273 2 6.4 -7 0 0 0 0 1.02348 5
2274 2 6.6 -7 0 0 0 0 1.02359 5
3115 1 6.92544 -6.75438 0.00136557 -0.000130894 -6.53102e-06 -2.92112e-07 1.024 0
3116 1 7.13049 -6.67392 0.00201169 5.38307e-05 -8.56303e-06 -5.21345e-07 1.0236 0
3119 1 7.17964 -6.82336 0.000940903 -0.000313406 -4.66345e-06 4.07513e-07 1.02438 0
2275 2 6.8 -7 0 0 0 0 1.02368 5
2276 2 7 -7 0 0 0 0 1.02376 5
3117 1 7.37538 -6.6775 0.00187996 4.96698e-05 -7.46118e-06 -2.96414e-07 1.02367 0
3118 1 7.64287 -6.63224 0.00225391 6.72218e-05 -7.57697e-06 -2.49239e-07 1.02367 0
3121 1 7.49121 -6.79029 0.00106269 -0.000230261 -4.56856e-06 3.83874e-07 1.02437 0
2277 2 7.2 -7 0 0 0 0 1.02389 5
2278 2 7.4 -7 0 0 0 0 1.02395 5
2279 2 7.6 -7 0 0 0 0 1.02397 5
3123 1 7.72035 -6.77239 0.00113758 -0.000208707 -4.25581e-06 3.01155e-07 1.0243 0
3120 1 7.96427 -6.65212 0.00201133 2.48621e-05 -5.51838e-06 -2.43201e-07 1.02374 0
3125 1 7.97557 -6.8245 0.000909651 -0.000361078 -3.02332e-06 2.79937e-07 1.0245 0
2280 2 7.8 -7 0 0 0 0 1.02398 5
2281 2 8 -7 0 0 0 0 1.02403 5
3122 1 8.13517 -6.60391 0.00240439 6.16786e-05 -5.30841e-06 -5.87891e-07 1.0237 0
3126 1 8.22158 -6.72209 0.00140657 -9.41161e-05 -3.18207e-06 -2.78217e-07 1.02406 0
3127 1 8.38034 -6.77477 0.00105888 -0.000249134 -2.02891e-06 -2.01712e-07 1.02443 0
2282 2 8.2 -7 0 0 0 0 1.02401 5
2283 2 8.4 -7 0 0 0 0 1.02401 5
3124 1 8.46821 -6.59864 0.00237463 7.66239e-05 -3.17669e-06 -1.09261e-06 1.02369 0
3128 1 8.57296 -6.74885 0.00122672 -0.000187368 -1.4876e-06 -4.79505e-07 1.0243 0
3129 1 8.75166 -6.75026 0.00120494 -0.000207064 -9.06945e-07 -6.13595e-07 1.02431 0
2284 2 8.6 -7 0 0 0 0 1.024 5
2285 2 8.8 -7 0 0 0 0 1.02395 5
3130 1 8.92551 -6.73529 0.0012979 -0.000175758 -4.60661e-07 -8.04781e-07 1.0242 0
3131 1 9.09637 -6.73581 0.00127197 -0.000175998 -1.16276e-07 -8.76045e-07 1.02417 0
3132 1 9.26812 -6.76881 0.00108013 -0.000268469 1.6229e-09 -7.05444e-07 1.02438 0
2286 2 9 -7 0 0 0 0 1.02392 5
2287 2 9.2 -7 0 0 0 0 1.02393 5
3133 1 9.45121 -6.69719 0.00152174 -6.1747e-05 1.6396e-07 -1.06515e-06 1.02386 0
3134 1 9.59583 -6.7732 0.00103152 -0.000267637 -1.19759e-08 -5.45563e-07 1.02433 0
2288 2 9.4 -7 0 0 0 0 1.02391 5
2289 2 9.6 -7 0 0 0 0 1.02389 5
3135 1 9.78332 -6.72093 0.00134156 -0.000118571 -1.96082e-08 -6.84644e-07 1.02397 0
3136 1 9.94991 -6.75794 0.00110965 -0.000227305 -2.40012e-07 -3.49613e-07 1.02419 0
3137 1 10.1432 -6.75339 0.00113767 -0.000211319 -3.50751e-07 -2.55208e-07 1.02414 0
2290 2 9.8 -7 0 0 0 0 1.02386 5
2291 2 10 -7 0 0 0 0 1.02384 5
3138 1 10.3362 -6.7578 0.00111799 -0.000222726 -4.43065e-07 -1.44684e-07 1.02412 0
3139 1 10.5313 -6.74622 0.00118655 -0.000198339 -4.10206e-07 -1.10855e-07 1.02401 0
2292 2 10.2 -7 0 0 0 0 1.02381 5
2293 2 10.4 -7 0 0 0 0 1.02376 5
3140 1 10.7201 -6.75304 0.00114135 -0.00022538 -3.91276e-07 -5.72328e-08 1.02402 0
3141 1 10.9125 -6.74657 0.00118099 -0.000213587 -2.54505e-07 -7.62695e-08 1.02394 0
2294 2 10.6 -7 0 0 0 0 1.0237 5
2295 2 10.8 -7 0 0 0 0 1.02366 5
14998 1 0.402133 -6.54063 0.02 0 0 0 1 2
14999 1 0.594991 -6.54936 0.02 0 0 0 1 2
15000 1 0.567195 -6.35187 0.02 0 0 0 1 2
15001 1 0.786972 -6.57051 0.02 0 0 0 1 2
15003 1 0.753647 -6.37687 0.02 0 0 0 1 2
15005 1 0.762391 -6.18311 0.02 0 0 0 1 2
15002 1 0.973414 -6.56758 0.02 0 0 0 1 2
15004 1 0.944388 -6.37271 0.02 0 0 0 1 2
15006 1 0.957662 -6.17218 0.02 0 0 0 1 2
15007 1 1.16001 -6.54947 0.02 0 0 0 1 2
15008 1 1.13891 -6.35872 0.02 0 0 0 1 2
15009 1 1.35056 -6.54057 0.02 0 -2.98837e-11 -1.06899e-11 1 2
15010 1 1.33537 -6.34714 0.02 0 0 0 1 2
15011 1 1.525 -6.34844 0.02 0 -5.68344e-12 3.36363e-12 1 2
15012 1 1.5351 -6.56091 0.02 0 -1.14292e-07 1.10253e-09 1 2
15013 1 1.71402 -6.55137 0.02 0 -3.41864e-08 3.26593e-05 1 2
15014 1 1.90354 -6.55287 0.02 0 7.4891e-05 0.000321523 1 2
15015 1 1.71258 -6.35112 0.02 0 1.27825e-06 3.32615e-06 1 2
15016 1 1.90273 -6.36217 0.02 0 1.99667e-05 4.94967e-05 1 2
15019 1 2.08535 -6.35066 0.02 0 5.12866e-05 0.000104969 1 2
14310 1 2.42941 -6.17885 0.02 0 5.19841e-06 1.36227e-05 1 2
14311 1 2.47285 -6.37417 0.02 0 0.00010665 0.000171561 1 2
15017 1 2.1062 -6.55686 0.02 0 0.000189653 0.00052966 1 2
15018 1 2.32002 -6.56939 0.02 0 0.000229217 0.000513338 1 2
15020 1 2.275 -6.39323 0.02 0 0.00013203 0.000200019 1 2
15021 1 2.23921 -6.19863 0.02 0 7.37668e-06 1.78371e-05 1 2
14312 1 2.52009 -6.56601 0.02 0 0.000203768 0.000457503 1 2
14313 1 2.71372 -6.56694 0.02 0 0.000147082 0.000472553 1 2
14314 1 2.67087 -6.37597 0.02 0 0.000104065 0.000157745 1 2
14315 1 2.62728 -6.18372 0.02 0 5.9177e-06 1.46161e-05 1 2
14317 1 2.83224 -6.18814 0.02 0 6.67228e-06 1.57819e-05 1 2
14316 1 2.86925 -6.37632 0.02 0 0.000102109 0.000158947 1 2
14318 1 2.91015 -6.56434 0.02 0 0.000165075 0.000512873 1 2
14319 1 3.11281 -6.56357 0.02 0 0.000184498 0.000537457 1 2
14320 1 3.06902 -6.37778 0.02 0 0.000105476 0.000167533 1 2
14321 1 3.04487 -6.19283 0.02 0 7.37407e-06 1.65326e-05 1 2
14324 1 3.26373 -6.21069 0.02 0 1.00486e-05 2.09012e-05 1 2
14322 1 3.32389 -6.57858 0.02 0 0.000160295 0.000540434 1 2
14323 1 3.27033 -6.39651 0.02 0 0.000130349 0.000206849 1 2
14325 1 3.53003 -6.56441 0.02 0 8.07217e-05 0.000494146 1 2
14326 1 3.47255 -6.39183 0.02 0 0.000110958 0.000191691 1 2
14328 1 3.49279 -6.21688 0.02 0 -5.1311e-06 2.21704e-05 1 2
14327 1 3.68293 -6.39489 0.02 0 -0.000517457 0.000223218 1 2
14329 1 3.74537 -6.56583 0.02 0 -0.00099967 0.000616759 1 2
14330 1 3.74783 -6.23392 0.02 0 -0.00126791 8.7534e-07 1 2
14331 1 3.94457 -6.56739 0.02 0 -0.00428184 0.000871439 1 2
14332 1 3.93572 -6.39641 0.02 0 -0.00387023 0.000135842 1 2
14334 1 3.97029 -6.22574 0.02 0 -0.00548941 0.000211386 1 2
14333 1 4.00013 -6.41724 0.0187753 0.000176982 -0.00489897 0.000707927 1.01942 0
14335 1 4.05877 -6.24976 0.0131117 0.00110204 4.42019e-05 2.62016e-05 1.02378 0
14336 1 4.2438 -6.55051 0.0114615 0.00295804 -6.13407e-05 -5.56524e-05 1.03168 0
14337 1 4.18431 -6.40826 0.012314 0.00318681 0.00010054 -3.98943e-05 1.0311 0
14338 1 4.18943 -6.16933 0.0114286 0.00287142 1.82634e-05 1.02562e-05 1.02862 0
13627 1 4.29883 -6.292 0.012529 0.00379284 2.5765e-05 2.00149e-06 1.02889 0
13628 1 4.36861 -6.12095 0.0134687 0.003781 -4.23212e-06 -1.20886e-05 1.02598 0
13630 1 4.43319 -6.37176 0.0133982 0.00332755 -4.13147e-06 -1.18963e-05 1.02635 0
13631 1 4.50472 -6.21512 0.0139048 0.00377832 -7.33448e-06 -1.53393e-05 1.02476 0
13618 1 4.56083 -6.54238 0.0109136 0.00193993 -7.36971e-06 -1.01582e-05 1.02469 0
13629 1 4.59989 -6.36846 0.0128398 0.00294675 -8.94029e-06 -1.4967e-05 1.02452 0
13632 1 4.67882 -6.20207 0.0134374 0.00349905 -7.28039e-06 -1.79355e-05 1.02426 0
13636 1 4.74879 -6.39121 0.0116382 0.00239874 -6.33432e-06 -1.60372e-05 1.0242 0