ITEM: TIMESTEP
49000
ITEM: NUMBER OF ATOMS
11751
ITEM: BOX BOUNDS ff ff pp
0.0000000000000000e+00 2.2000000000000000e+01
-1.0000000000000000e+01 1.0000000000000000e+01
-2.0000000000000000e-02 2.0000000000000000e-02
ITEM: ATOMS id type x y vx vy fx fy c_den c_phase
1501 2 2 -10 0 0 0 0 1 5
1551 2 2 -9.8 0 0 0 0 1 5
1601 2 2 -9.6 0 0 0 0 1 5
1502 2 2.2 -10 0 0 0 0 1 5
1503 2 2.4 -10 0 0 0 0 1 5
1552 2 2.2 -9.8 0 0 0 0 1 5
1553 2 2.4 -9.8 0 0 0 0 1 5
1602 2 2.2 -9.6 0 0 0 0 1 5
1603 2 2.4 -9.6 0 0 0 0 1 5
1504 2 2.6 -10 0 0 0 0 1 5
1505 2 2.8 -10 0 0 0 0 1 5
1554 2 2.6 -9.8 0 0 0 0 1 5
1555 2 2.8 -9.8 0 0 0 0 1 5
1604 2 2.6 -9.6 0 0 0 0 1 5
1605 2 2.8 -9.6 0 0 0 0 1 5
1506 2 3 -10 0 0 0 0 1 5
1507 2 3.2 -10 0 0 0 0 1 5
1556 2 3 -9.8 0 0 0 0 1 5
1557 2 3.2 -9.8 0 0 0 0 1 5
1606 2 3 -9.6 0 0 0 0 1 5
1607 2 3.2 -9.6 0 0 0 0 1 5
1508 2 3.4 -10 0 0 0 0 1 5
1509 2 3.6 -10 0 0 0 0 1 5
1558 2 3.4 -9.8 0 0 0 0 1 5
1559 2 3.6 -9.8 0 0 0 0 1 5
1608 2 3.4 -9.6 0 0 0 0 1 5
1609 2 3.6 -9.6 0 0 0 0 1 5
1510 2 3.8 -10 0 0 0 0 1 5
1560 2 3.8 -9.8 0 0 0 0 1 5
1610 2 3.8 -9.6 0 0 0 0 1 5
1511 2 4 -10 0 0 0 0 1 5
1561 2 4 -9.8 0 0 0 0 1 5
1611 2 4 -9.6 0 0 0 0 1 5
1512 2 4.2 -10 0 0 0 0 1 5
1562 2 4.2 -9.8 0 0 0 0 1 5
1612 2 4.2 -9.6 0 0 0 0 1 5
1513 2 4.4 -10 0 0 0 0 1 5
1514 2 4.6 -10 0 0 0 0 1 5
1563 2 4.4 -9.8 0 0 0 0 1 5
1564 2 4.6 -9.8 0 0 0 0 1 5
1613 2 4.4 -9.6 0 0 0 0 1 5
1614 2 4.6 -9.6 0 0 0 0 1 5
1515 2 4.8 -10 0 0 0 0 1 5
1516 2 5 -10 0 0 0 0 1 5
1565 2 4.8 -9.8 0 0 0 0 1 5
1566 2 5 -9.8 0 0 0 0 1 5
1615 2 4.8 -9.6 0 0 0 0 1 5
1616 2 5 -9.6 0 0 0 0 1 5
1517 2 5.2 -10 0 0 0 0 1 5
1518 2 5.4 -10 0 0 0 0 1 5
1567 2 5.2 -9.8 0 0 0 0 1 5
1568 2 5.4 -9.8 0 0 0 0 1 5
1617 2 5.2 -9.6 0 0 0 0 1 5
1618 2 5.4 -9.6 0 0 0 0 1 5
1519 2 5.6 -10 0 0 0 0 1 5
1520 2 5.8 -10 0 0 0 0 1 5
1569 2 5.6 -9.8 0 0 0 0 1 5
1570 2 5.8 -9.8 0 0 0 0 1 5
1619 2 5.6 -9.6 0 0 0 0 1 5
1620 2 5.8 -9.6 0 0 0 0 1 5
1521 2 6 -10 0 0 0 0 1 5
1522 2 6.2 -10 0 0 0 0 1 5
1571 2 6 -9.8 0 0 0 0 1 5
1572 2 6.2 -9.8 0 0 0 0 1 5
1621 2 6 -9.6 0 0 0 0 1 5
1622 2 6.2 -9.6 0 0 0 0 1 5
1523 2 6.4 -10 0 0 0 0 1 5
1524 2 6.6 -10 0 0 0 0 1 5
1573 2 6.4 -9.8 0 0 0 0 1 5
1574 2 6.6 -9.8 0 0 0 0 1 5
1623 2 6.4 -9.6 0 0 0 0 1 5
1624 2 6.6 -9.6 0 0 0 0 1 5
1525 2 6.8 -10 0 0 0 0 1 5
1526 2 7 -10 0 0 0 0 1 5
1575 2 6.8 -9.8 0 0 0 0 1 5
1576 2 7 -9.8 0 0 0 0 1 5
1625 2 6.8 -9.6 0 0 0 0 1 5
1626 2 7 -9.6 0 0 0 0 1 5
1527 2 7.2 -10 0 0 0 0 1 5
1577 2 7.2 -9.8 0 0 0 0 1 5
1627 2 7.2 -9.6 0 0 0 0 1 5
1528 2 7.4 -10 0 0 0 0 1 5
1529 2 7.6 -10 0 0 0 0 1 5
1578 2 7.4 -9.8 0 0 0 0 1 5
1579 2 7.6 -9.8 0 0 0 0 1 5
1628 2 7.4 -9.6 0 0 0 0 1 5
1629 2 7.6 -9.6 0 0 0 0 1 5
1530 2 7.8 -10 0 0 0 0 1 5
1531 2 8 -10 0 0 0 0 1 5
1580 2 7.8 -9.8 0 0 0 0 1 5
1581 2 8 -9.8 0 0 0 0 1 5
1630 2 7.8 -9.6 0 0 0 0 1 5
1631 2 8 -9.6 0 0 0 0 1 5
1532 2 8.2 -10 0 0 0 0 1 5
1533 2 8.4 -10 0 0 0 0 1 5
1582 2 8.2 -9.8 0 0 0 0 1 5
1583 2 8.4 -9.8 0 0 0 0 1 5
1632 2 8.2 -9.6 0 0 0 0 1 5
1633 2 8.4 -9.6 0 0 0 0 1 5
1534 2 8.6 -10 0 0 0 0 1 5
1535 2 8.8 -10 0 0 0 0 1 5
1584 2 8.6 -9.8 0 0 0 0 1 5
1585 2 8.8 -9.8 0 0 0 0 1 5
1634 2 8.6 -9.6 0 0 0 0 1 5
1635 2 8.8 -9.6 0 0 0 0 1 5
1536 2 9 -10 0 0 0 0 1 5
1537 2 9.2 -10 0 0 0 0 1 5
1586 2 9 -9.8 0 0 0 0 1 5
1587 2 9.2 -9.8 0 0 0 0 1 5
1636 2 9 -9.6 0 0 0 0 1 5
1637 2 9.2 -9.6 0 0 0 0 1 5
1538 2 9.4 -10 0 0 0 0 1 5
1539 2 9.6 -10 0 0 0 0 1 5
1588 2 9.4 -9.8 0 0 0 0 1 5
1589 2 9.6 -9.8 0 0 0 0 1 5
1638 2 9.4 -9.6 0 0 0 0 1 5
1639 2 9.6 -9.6 0 0 0 0 1 5
1540 2 9.8 -10 0 0 0 0 1 5
1590 2 9.8 -9.8 0 0 0 0 1 5
1640 2 9.8 -9.6 0 0 0 0 1 5
1541 2 10 -10 0 0 0 0 1 5
1591 2 10 -9.8 0 0 0 0 1 5
1641 2 10 -9.6 0 0 0 0 1 5
1542 2 10.2 -10 0 0 0 0 1 5
1592 2 10.2 -9.8 0 0 0 0 1 5
1642 2 10.2 -9.6 0 0 0 0 1 5
1543 2 10.4 -10 0 0 0 0 1 5
1593 2 10.4 -9.8 0 0 0 0 1 5
1643 2 10.4 -9.6 0 0 0 0 1 5
1544 2 10.6 -10 0 0 0 0 1 5
1594 2 10.6 -9.8 0 0 0 0 1 5
1644 2 10.6 -9.6 0 0 0 0 1 5
1545 2 10.8 -10 0 0 0 0 1 5
1595 2 10.8 -9.8 0 0 0 0 1 5
1645 2 10.8 -9.6 0 0 0 0 1 5
1651 2 2 -9.4 0 0 0 0 1 5
1701 2 2 -9.2 0 0 0 0 1 5
1652 2 2.2 -9.4 0 0 0 0 1 5
1653 2 2.4 -9.4 0 0 0 0 1 5
1702 2 2.2 -9.2 0 0 0 0 1 5
1703 2 2.4 -9.2 0 0 0 0 1 5
1654 2 2.6 -9.4 0 0 0 0 1 5
1655 2 2.8 -9.4 0 0 0 0 1 5
1704 2 2.6 -9.2 0 0 0 0 1 5
1705 2 2.8 -9.2 0 0 0 0 1 5
1656 2 3 -9.4 0 0 0 0 1 5
1657 2 3.2 -9.4 0 0 0 0 1 5
1706 2 3 -9.2 0 0 0 0 1 5
1707 2 3.2 -9.2 0 0 0 0 1 5
1658 2 3.4 -9.4 0 0 0 0 1 5
1659 2 3.6 -9.4 0 0 0 0 1 5
1708 2 3.4 -9.2 0 0 0 0 1 5
1709 2 3.6 -9.2 0 0 0 0 1 5
1660 2 3.8 -9.4 0 0 0 0 1 5
1710 2 3.8 -9.2 0 0 0 0 1 5
1661 2 4 -9.4 0 0 0 0 1 5
1711 2 4 -9.2 0 0 0 0 1 5
1662 2 4.2 -9.4 0 0 0 0 1 5
1712 2 4.2 -9.2 0 0 0 0 1 5
1663 2 4.4 -9.4 0 0 0 0 1 5
1664 2 4.6 -9.4 0 0 0 0 1 5
1713 2 4.4 -9.2 0 0 0 0 1 5
1714 2 4.6 -9.2 0 0 0 0 1 5
1665 2 4.8 -9.4 0 0 0 0 1 5
1666 2 5 -9.4 0 0 0 0 1 5
1715 2 4.8 -9.2 0 0 0 0 1 5
1716 2 5 -9.2 0 0 0 0 1 5
1667 2 5.2 -9.4 0 0 0 0 1 5
1668 2 5.4 -9.4 0 0 0 0 1 5
1717 2 5.2 -9.2 0 0 0 0 1 5
1718 2 5.4 -9.2 0 0 0 0 1 5
1669 2 5.6 -9.4 0 0 0 0 1 5
1670 2 5.8 -9.4 0 0 0 0 1 5
1719 2 5.6 -9.2 0 0 0 0 1 5
1720 2 5.8 -9.2 0 0 0 0 1 5
1671 2 6 -9.4 0 0 0 0 1 5
1672 2 6.2 -9.4 0 0 0 0 1 5
1721 2 6 -9.2 0 0 0 0 1 5
1722 2 6.2 -9.2 0 0 0 0 1 5
1673 2 6.4 -9.4 0 0 0 0 1 5
1674 2 6.6 -9.4 0 0 0 0 1 5
1723 2 6.4 -9.2 0 0 0 0 1 5
1724 2 6.6 -9.2 0 0 0 0 1 5
1675 2 6.8 -9.4 0 0 0 0 1 5
1676 2 7 -9.4 0 0 0 0 1 5
1725 2 6.8 -9.2 0 0 0 0 1 5
1726 2 7 -9.2 0 0 0 0 1 5
1677 2 7.2 -9.4 0 0 0 0 1 5
1727 2 7.2 -9.2 0 0 0 0 1 5
1678 2 7.4 -9.4 0 0 0 0 1 5
1679 2 7.6 -9.4 0 0 0 0 1 5
1728 2 7.4 -9.2 0 0 0 0 1 5
1729 2 7.6 -9.2 0 0 0 0 1 5
1680 2 7.8 -9.4 0 0 0 0 1 5
1681 2 8 -9.4 0 0 0 0 1 5
1730 2 7.8 -9.2 0 0 0 0 1 5
1731 2 8 -9.2 0 0 0 0 1 5
1682 2 8.2 -9.4 0 0 0 0 1 5
1683 2 8.4 -9.4 0 0 0 0 1 5
1732 2 8.2 -9.2 0 0 0 0 1 5
1733 2 8.4 -9.2 0 0 0 0 1 5
1684 2 8.6 -9.4 0 0 0 0 1 5
1685 2 8.8 -9.4 0 0 0 0 1 5
1734 2 8.6 -9.2 0 0 0 0 1 5
1735 2 8.8 -9.2 0 0 0 0 1 5
1686 2 9 -9.4 0 0 0 0 1 5
1687 2 9.2 -9.4 0 0 0 0 1 5
1736 2 9 -9.2 0 0 0 0 1 5
1737 2 9.2 -9.2 0 0 0 0 1 5
1688 2 9.4 -9.4 0 0 0 0 1 5
1689 2 9.6 -9.4 0 0 0 0 1 5
1738 2 9.4 -9.2 0 0 0 0 1 5
1739 2 9.6 -9.2 0 0 0 0 1 5
1690 2 9.8 -9.4 0 0 0 0 1 5
1740 2 9.8 -9.2 0 0 0 0 1 5
1691 2 10 -9.4 0 0 0 0 1 5
1741 2 10 -9.2 0 0 0 0 1 5
1692 2 10.2 -9.4 0 0 0 0 1 5
1742 2 10.2 -9.2 0 0 0 0 1 5
1693 2 10.4 -9.4 0 0 0 0 1 5
1743 2 10.4 -9.2 0 0 0 0 1 5
1694 2 10.6 -9.4 0 0 0 0 1 5
1744 2 10.6 -9.2 0 0 0 0 1 5
1695 2 10.8 -9.4 0 0 0 0 1 5
1745 2 10.8 -9.2 0 0 0 0 1 5
1751 2 2 -9 0 0 0 0 1 5
1801 2 2 -8.8 0 0 0 0 1 5
1752 2 2.2 -9 0 0 0 0 1 5
1753 2 2.4 -9 0 0 0 0 1 5
1802 2 2.2 -8.8 0 0 0 0 1 5
1803 2 2.4 -8.8 0 0 0 0 1 5
1754 2 2.6 -9 0 0 0 0 1 5
1755 2 2.8 -9 0 0 0 0 1 5
1804 2 2.6 -8.8 0 0 0 0 1 5
1805 2 2.8 -8.8 0 0 0 0 1 5
1756 2 3 -9 0 0 0 0 1 5
1757 2 3.2 -9 0 0 0 0 1 5
1806 2 3 -8.8 0 0 0 0 1 5
1807 2 3.2 -8.8 0 0 0 0 1 5
1758 2 3.4 -9 0 0 0 0 1 5
1759 2 3.6 -9 0 0 0 0 1 5
1808 2 3.4 -8.8 0 0 0 0 1 5
1809 2 3.6 -8.8 0 0 0 0 1 5
1760 2 3.8 -9 0 0 0 0 1 5
1810 2 3.8 -8.8 0 0 0 0 1 5
1761 2 4 -9 0 0 0 0 1 5
1811 2 4 -8.8 0 0 0 0 1 5
1762 2 4.2 -9 0 0 0 0 1 5
1812 2 4.2 -8.8 0 0 0 0 1 5
1763 2 4.4 -9 0 0 0 0 1 5
1764 2 4.6 -9 0 0 0 0 1 5
1813 2 4.4 -8.8 0 0 0 0 1 5
1814 2 4.6 -8.8 0 0 0 0 1 5
1765 2 4.8 -9 0 0 0 0 1 5
1766 2 5 -9 0 0 0 0 1 5
1815 2 4.8 -8.8 0 0 0 0 1 5
1816 2 5 -8.8 0 0 0 0 1 5
1767 2 5.2 -9 0 0 0 0 1 5
1768 2 5.4 -9 0 0 0 0 1 5
1817 2 5.2 -8.8 0 0 0 0 1 5
1818 2 5.4 -8.8 0 0 0 0 1 5
1769 2 5.6 -9 0 0 0 0 1 5
1770 2 5.8 -9 0 0 0 0 1 5
1819 2 5.6 -8.8 0 0 0 0 1 5
1820 2 5.8 -8.8 0 0 0 0 1 5
1771 2 6 -9 0 0 0 0 1 5
1772 2 6.2 -9 0 0 0 0 1 5
1821 2 6 -8.8 0 0 0 0 1 5
1822 2 6.2 -8.8 0 0 0 0 1 5
1773 2 6.4 -9 0 0 0 0 1 5
1774 2 6.6 -9 0 0 0 0 1 5
1823 2 6.4 -8.8 0 0 0 0 1 5
1824 2 6.6 -8.8 0 0 0 0 1 5
1775 2 6.8 -9 0 0 0 0 1 5
1776 2 7 -9 0 0 0 0 1 5
1825 2 6.8 -8.8 0 0 0 0 1 5
1826 2 7 -8.8 0 0 0 0 1 5
1777 2 7.2 -9 0 0 0 0 1 5
1827 2 7.2 -8.8 0 0 0 0 1 5
1778 2 7.4 -9 0 0 0 0 1 5
1779 2 7.6 -9 0 0 0 0 1 5
1828 2 7.4 -8.8 0 0 0 0 1 5
1829 2 7.6 -8.8 0 0 0 0 1 5
1780 2 7.8 -9 0 0 0 0 1 5
1781 2 8 -9 0 0 0 0 1 5
1830 2 7.8 -8.8 0 0 0 0 1 5
1831 2 8 -8.8 0 0 0 0 1 5
1782 2 8.2 -9 0 0 0 0 1 5
1783 2 8.4 -9 0 0 0 0 1 5
1832 2 8.2 -8.8 0 0 0 0 1 5
1833 2 8.4 -8.8 0 0 0 0 1 5
1784 2 8.6 -9 0 0 0 0 1 5
1785 2 8.8 -9 0 0 0 0 1 5
1834 2 8.6 -8.8 0 0 0 0 1 5
1835 2 8.8 -8.8 0 0 0 0 1 5
1786 2 9 -9 0 0 0 0 1 5
1787 2 9.2 -9 0 0 0 0 1 5
1836 2 9 -8.8 0 0 0 0 1 5
1837 2 9.2 -8.8 0 0 0 0 1 5
1788 2 9.4 -9 0 0 0 0 1 5
1789 2 9.6 -9 0 0 0 0 1 5
1838 2 9.4 -8.8 0 0 0 0 1 5
1839 2 9.6 -8.8 0 0 0 0 1 5
1790 2 9.8 -9 0 0 0 0 1 5
1840 2 9.8 -8.8 0 0 0 0 1 5
1791 2 10 -9 0 0 0 0 1 5
1841 2 10 -8.8 0 0 0 0 1 5
1792 2 10.2 -9 0 0 0 0 1 5
1842 2 10.2 -8.8 0 0 0 0 1 5
1793 2 10.4 -9 0 0 0 0 1 5
1843 2 10.4 -8.8 0 0 0 0 1 5
1794 2 10.6 -9 0 0 0 0 1 5
1844 2 10.6 -8.8 0 0 0 0 1 5
1795 2 10.8 -9 0 0 0 0 1 5
1845 2 10.8 -8.8 0 0 0 0 1 5
1851 2 2 -8.6 0 0 0 0 1 5
1901 2 2 -8.4 0 0 0 0 1 5
1852 2 2.2 -8.6 0 0 0 0 1 5
1853 2 2.4 -8.6 0 0 0 0 1 5
1902 2 2.2 -8.4 0 0 0 0 1 5
1903 2 2.4 -8.4 0 0 0 0 1 5
1854 2 2.6 -8.6 0 0 0 0 1 5
1855 2 2.8 -8.6 0 0 0 0 1 5
1904 2 2.6 -8.4 0 0 0 0 1 5
1905 2 2.8 -8.4 0 0 0 0 1 5
1856 2 3 -8.6 0 0 0 0 1 5
1857 2 3.2 -8.6 0 0 0 0 1 5
1906 2 3 -8.4 0 0 0 0 1 5
1907 2 3.2 -8.4 0 0 0 0 1 5
1858 2 3.4 -8.6 0 0 0 0 1 5
1859 2 3.6 -8.6 0 0 0 0 1 5
1908 2 3.4 -8.4 0 0 0 0 1 5
1909 2 3.6 -8.4 0 0 0 0 1 5
1860 2 3.8 -8.6 0 0 0 0 1 5
1910 2 3.8 -8.4 0 0 0 0 1 5
1861 2 4 -8.6 0 0 0 0 1 5
1911 2 4 -8.4 0 0 0 0 1 5
1862 2 4.2 -8.6 0 0 0 0 1 5
1912 2 4.2 -8.4 0 0 0 0 1 5
1863 2 4.4 -8.6 0 0 0 0 1 5
1864 2 4.6 -8.6 0 0 0 0 1 5
1913 2 4.4 -8.4 0 0 0 0 1 5
1914 2 4.6 -8.4 0 0 0 0 1 5
1865 2 4.8 -8.6 0 0 0 0 1 5
1866 2 5 -8.6 0 0 0 0 1 5
1915 2 4.8 -8.4 0 0 0 0 1 5
1916 2 5 -8.4 0 0 0 0 1 5
1867 2 5.2 -8.6 0 0 0 0 1 5
1868 2 5.4 -8.6 0 0 0 0 1 5
1917 2 5.2 -8.4 0 0 0 0 1 5
1918 2 5.4 -8.4 0 0 0 0 1 5
1869 2 5.6 -8.6 0 0 0 0 1 5
1870 2 5.8 -8.6 0 0 0 0 1 5
1919 2 5.6 -8.4 0 0 0 0 1 5
1920 2 5.8 -8.4 0 0 0 0 1 5
1871 2 6 -8.6 0 0 0 0 1 5
1872 2 6.2 -8.6 0 0 0 0 1 5
1921 2 6 -8.4 0 0 0 0 1 5
1922 2 6.2 -8.4 0 0 0 0 1 5
1873 2 6.4 -8.6 0 0 0 0 1 5
1874 2 6.6 -8.6 0 0 0 0 1 5
1923 2 6.4 -8.4 0 0 0 0 1 5
1924 2 6.6 -8.4 0 0 0 0 1 5
1875 2 6.8 -8.6 0 0 0 0 1 5
1876 2 7 -8.6 0 0 0 0 1 5
1925 2 6.8 -8.4 0 0 0 0 1 5
1926 2 7 -8.4 0 0 0 0 1 5
1877 2 7.2 -8.6 0 0 0 0 1 5
1927 2 7.2 -8.4 0 0 0 0 1 5
1878 2 7.4 -8.6 0 0 0 0 1 5
1879 2 7.6 -8.6 0 0 0 0 1 5
1928 2 7.4 -8.4 0 0 0 0 1 5
1929 2 7.6 -8.4 0 0 0 0 1 5
1880 2 7.8 -8.6 0 0 0 0 1 5
1881 2 8 -8.6 0 0 0 0 1 5
1930 2 7.8 -8.4 0 0 0 0 1 5
1931 2 8 -8.4 0 0 0 0 1 5
1882 2 8.2 -8.6 0 0 0 0 1 5
1883 2 8.4 -8.6 0 0 0 0 1 5
1932 2 8.2 -8.4 0 0 0 0 1 5
1933 2 8.4 -8.4 0 0 0 0 1 5
1884 2 8.6 -8.6 0 0 0 0 1 5
1885 2 8.8 -8.6 0 0 0 0 1 5
1934 2 8.6 -8.4 0 0 0 0 1 5
1935 2 8.8 -8.4 0 0 0 0 1 5
1886 2 9 -8.6 0 0 0 0 1 5
1887 2 9.2 -8.6 0 0 0 0 1 5
1936 2 9 -8.4 0 0 0 0 1 5
1937 2 9.2 -8.4 0 0 0 0 1 5
1888 2 9.4 -8.6 0 0 0 0 1 5
1889 2 9.6 -8.6 0 0 0 0 1 5
1938 2 9.4 -8.4 0 0 0 0 1 5
1939 2 9.6 -8.4 0 0 0 0 1 5
1890 2 9.8 -8.6 0 0 0 0 1 5
1940 2 9.8 -8.4 0 0 0 0 1 5
1891 2 10 -8.6 0 0 0 0 1 5
1941 2 10 -8.4 0 0 0 0 1 5
1892 2 10.2 -8.6 0 0 0 0 1 5
1942 2 10.2 -8.4 0 0 0 0 1 5
1893 2 10.4 -8.6 0 0 0 0 1 5
1943 2 10.4 -8.4 0 0 0 0 1 5
1894 2 10.6 -8.6 0 0 0 0 1 5
1944 2 10.6 -8.4 0 0 0 0 1 5
1895 2 10.8 -8.6 0 0 0 0 1 5
1945 2 10.8 -8.4 0 0 0 0 1 5
1951 2 2 -8.2 0 0 0 0 1 5
2001 2 2 -8 0 0 0 0 1 5
1952 2 2.2 -8.2 0 0 0 0 1 5
1953 2 2.4 -8.2 0 0 0 0 1 5
2002 2 2.2 -8 0 0 0 0 1 5
2003 2 2.4 -8 0 0 0 0 1 5
1954 2 2.6 -8.2 0 0 0 0 1 5
1955 2 2.8 -8.2 0 0 0 0 1 5
2004 2 2.6 -8 0 0 0 0 1 5
2005 2 2.8 -8 0 0 0 0 1 5
1956 2 3 -8.2 0 0 0 0 1 5
1957 2 3.2 -8.2 0 0 0 0 1 5
2006 2 3 -8 0 0 0 0 1 5
2007 2 3.2 -8 0 0 0 0 1 5
1958 2 3.4 -8.2 0 0 0 0 1 5
1959 2 3.6 -8.2 0 0 0 0 1 5
2008 2 3.4 -8 0 0 0 0 1 5
2009 2 3.6 -8 0 0 0 0 1 5
1960 2 3.8 -8.2 0 0 0 0 1 5
2010 2 3.8 -8 0 0 0 0 1 5
1961 2 4 -8.2 0 0 0 0 1 5
2011 2 4 -8 0 0 0 0 1 5
1962 2 4.2 -8.2 0 0 0 0 1 5
2012 2 4.2 -8 0 0 0 0 1 5
1963 2 4.4 -8.2 0 0 0 0 1 5
1964 2 4.6 -8.2 0 0 0 0 1 5
2013 2 4.4 -8 0 0 0 0 1 5
2014 2 4.6 -8 0 0 0 0 1 5
1965 2 4.8 -8.2 0 0 0 0 1 5
1966 2 5 -8.2 0 0 0 0 1 5
2015 2 4.8 -8 0 0 0 0 1 5
2016 2 5 -8 0 0 0 0 1 5
1967 2 5.2 -8.2 0 0 0 0 1 5
1968 2 5.4 -8.2 0 0 0 0 1 5
2017 2 5.2 -8 0 0 0 0 1 5
2018 2 5.4 -8 0 0 0 0 1 5
1969 2 5.6 -8.2 0 0 0 0 1 5
1970 2 5.8 -8.2 0 0 0 0 1 5
2019 2 5.6 -8 0 0 0 0 1 5
2020 2 5.8 -8 0 0 0 0 1 5
1971 2 6 -8.2 0 0 0 0 1 5
1972 2 6.2 -8.2 0 0 0 0 1 5
2021 2 6 -8 0 0 0 0 1 5
2022 2 6.2 -8 0 0 0 0 1 5
1973 2 6.4 -8.2 0 0 0 0 1 5
1974 2 6.6 -8.2 0 0 0 0 1 5
2023 2 6.4 -8 0 0 0 0 1 5
2024 2 6.6 -8 0 0 0 0 1 5
1975 2 6.8 -8.2 0 0 0 0 1 5
1976 2 7 -8.2 0 0 0 0 1 5
2025 2 6.8 -8 0 0 0 0 1 5
2026 2 7 -8 0 0 0 0 1 5
1977 2 7.2 -8.2 0 0 0 0 1 5
2027 2 7.2 -8 0 0 0 0 1 5
1978 2 7.4 -8.2 0 0 0 0 1 5
1979 2 7.6 -8.2 0 0 0 0 1 5
2028 2 7.4 -8 0 0 0 0 1 5
2029 2 7.6 -8 0 0 0 0 1 5
1980 2 7.8 -8.2 0 0 0 0 1 5
1981 2 8 -8.2 0 0 0 0 1 5
2030 2 7.8 -8 0 0 0 0 1 5
2031 2 8 -8 0 0 0 0 1 5
1982 2 8.2 -8.2 0 0 0 0 1 5
1983 2 8.4 -8.2 0 0 0 0 1 5
2032 2 8.2 -8 0 0 0 0 1 5
2033 2 8.4 -8 0 0 0 0 1 5
1984 2 8.6 -8.2 0 0 0 0 1 5
1985 2 8.8 -8.2 0 0 0 0 1 5
2034 2 8.6 -8 0 0 0 0 1 5
2035 2 8.8 -8 0 0 0 0 1 5
1986 2 9 -8.2 0 0 0 0 1 5
1987 2 9.2 -8.2 0 0 0 0 1 5
2036 2 9 -8 0 0 0 0 1 5
2037 2 9.2 -8 0 0 0 0 1 5
1988 2 9.4 -8.2 0 0 0 0 1 5
1989 2 9.6 -8.2 0 0 0 0 1 5
2038 2 9.4 -8 0 0 0 0 1 5
2039 2 9.6 -8 0 0 0 0 1 5
1990 2 9.8 -8.2 0 0 0 0 1 5
2040 2 9.8 -8 0 0 0 0 1 5
1991 2 10 -8.2 0 0 0 0 1 5
2041 2 10 -8 0 0 0 0 1 5
1992 2 10.2 -8.2 0 0 0 0 1 5
2042 2 10.2 -8 0 0 0 0 1 5
1993 2 10.4 -8.2 0 0 0 0 1 5
2043 2 10.4 -8 0 0 0 0 1 5
1994 2 10.6 -8.2 0 0 0 0 1 5
2044 2 10.6 -8 0 0 0 0 1 5
1995 2 10.8 -8.2 0 0 0 0 1 5
2045 2 10.8 -8 0 0 0 0 1 5
2051 2 2 -7.8 0 0 0 0 1 5
2101 2 2 -7.6 0 0 0 0 1 5
2052 2 2.2 -7.8 0 0 0 0 1 5
2053 2 2.4 -7.8 0 0 0 0 1 5
2102 2 2.2 -7.6 0 0 0 0 1 5
2103 2 2.4 -7.6 0 0 0 0 1 5
2054 2 2.6 -7.8 0 0 0 0 1 5
2055 2 2.8 -7.8 0 0 0 0 1 5
2104 2 2.6 -7.6 0 0 0 0 1 5
2105 2 2.8 -7.6 0 0 0 0 1 5
2056 2 3 -7.8 0 0 0 0 1 5
2057 2 3.2 -7.8 0 0 0 0 1 5
2106 2 3 -7.6 0 0 0 0 1 5
2107 2 3.2 -7.6 0 0 0 0 1 5
2058 2 3.4 -7.8 0 0 0 0 1 5
2059 2 3.6 -7.8 0 0 0 0 1 5
2108 2 3.4 -7.6 0 0 0 0 1 5
2109 2 3.6 -7.6 0 0 0 0 1 5
2060 2 3.8 -7.8 0 0 0 0 1 5
2110 2 3.8 -7.6 0 0 0 0 1 5
2061 2 4 -7.8 0 0 0 0 1 5
2111 2 4 -7.6 0 0 0 0 1 5
2062 2 4.2 -7.8 0 0 0 0 1 5
2112 2 4.2 -7.6 0 0 0 0 1 5
2063 2 4.4 -7.8 0 0 0 0 1 5
2064 2 4.6 -7.8 0 0 0 0 1 5
2113 2 4.4 -7.6 0 0 0 0 1 5
2114 2 4.6 -7.6 0 0 0 0 1 5
2065 2 4.8 -7.8 0 0 0 0 1 5
2066 2 5 -7.8 0 0 0 0 1 5
2115 2 4.8 -7.6 0 0 0 0 1 5
2116 2 5 -7.6 0 0 0 0 1 5
2067 2 5.2 -7.8 0 0 0 0 1 5
2068 2 5.4 -7.8 0 0 0 0 1 5
2117 2 5.2 -7.6 0 0 0 0 1 5
2118 2 5.4 -7.6 0 0 0 0 1 5
2069 2 5.6 -7.8 0 0 0 0 1 5
2070 2 5.8 -7.8 0 0 0 0 1 5
2119 2 5.6 -7.6 0 0 0 0 1 5
2120 2 5.8 -7.6 0 0 0 0 1 5
2071 2 6 -7.8 0 0 0 0 1 5
2072 2 6.2 -7.8 0 0 0 0 1 5
2121 2 6 -7.6 0 0 0 0 1 5
2122 2 6.2 -7.6 0 0 0 0 1 5
2073 2 6.4 -7.8 0 0 0 0 1 5
2074 2 6.6 -7.8 0 0 0 0 1 5
2123 2 6.4 -7.6 0 0 0 0 1 5
2124 2 6.6 -7.6 0 0 0 0 1 5
2075 2 6.8 -7.8 0 0 0 0 1 5
2076 2 7 -7.8 0 0 0 0 1 5
2125 2 6.8 -7.6 0 0 0 0 1 5
2126 2 7 -7.6 0 0 0 0 1 5
2077 2 7.2 -7.8 0 0 0 0 1 5
2127 2 7.2 -7.6 0 0 0 0 1 5
2078 2 7.4 -7.8 0 0 0 0 1 5
2079 2 7.6 -7.8 0 0 0 0 1 5
2128 2 7.4 -7.6 0 0 0 0 1 5
2129 2 7.6 -7.6 0 0 0 0 1 5
2080 2 7.8 -7.8 0 0 0 0 1 5
2081 2 8 -7.8 0 0 0 0 1 5
2130 2 7.8 -7.6 0 0 0 0 1 5
2131 2 8 -7.6 0 0 0 0 1 5
2082 2 8.2 -7.8 0 0 0 0 1 5
2083 2 8.4 -7.8 0 0 0 0 1 5
2132 2 8.2 -7.6 0 0 0 0 1 5
2133 2 8.4 -7.6 0 0 0 0 1 5
2084 2 8.6 -7.8 0 0 0 0 1 5
2085 2 8.8 -7.8 0 0 0 0 1 5
2134 2 8.6 -7.6 0 0 0 0 1 5
2135 2 8.8 -7.6 0 0 0 0 1 5
2086 2 9 -7.8 0 0 0 0 1 5
2087 2 9.2 -7.8 0 0 0 0 1 5
2136 2 9 -7.6 0 0 0 0 1 5
2137 2 9.2 -7.6 0 0 0 0 1 5
2088 2 9.4 -7.8 0 0 0 0 1 5
2089 2 9.6 -7.8 0 0 0 0 1 5
2138 2 9.4 -7.6 0 0 0 0 1 5
2139 2 9.6 -7.6 0 0 0 0 1 5
2090 2 9.8 -7.8 0 0 0 0 1 5
2140 2 9.8 -7.6 0 0 0 0 1 5
2091 2 10 -7.8 0 0 0 0 1 5
2141 2 10 -7.6 0 0 0 0 1 5
2092 2 10.2 -7.8 0 0 0 0 1 5
2142 2 10.2 -7.6 0 0 0 0 1 5
2093 2 10.4 -7.8 0 0 0 0 1 5
2143 2 10.4 -7.6 0 0 0 0 1 5
2094 2 10.6 -7.8 0 0 0 0 1 5
2144 2 10.6 -7.6 0 0 0 0 1 5
2095 2 10.8 -7.8 0 0 0 0 1 5
2145 2 10.8 -7.6 0 0 0 0 1 5
2151 2 2 -7.4 0 0 0 0 0.997413 5
2201 2 2 -7.2 0 0 0 0 1.00058 5
2152 2 2.2 -7.4 0 0 0 0 1.00784 5
2153 2 2.4 -7.4 0 0 0 0 0.997985 5
2202 2 2.2 -7.2 0 0 0 0 1.0013 5
2203 2 2.4 -7.2 0 0 0 0 1.00056 5
2154 2 2.6 -7.4 0 0 0 0 0.999395 5
2155 2 2.8 -7.4 0 0 0 0 0.99903 5
2204 2 2.6 -7.2 0 0 0 0 1.00006 5
2205 2 2.8 -7.2 0 0 0 0 0.999229 5
2156 2 3 -7.4 0 0 0 0 0.999916 5
2157 2 3.2 -7.4 0 0 0 0 0.999838 5
2206 2 3 -7.2 0 0 0 0 0.999777 5
2207 2 3.2 -7.2 0 0 0 0 0.99993 5
2158 2 3.4 -7.4 0 0 0 0 1.00138 5
2159 2 3.6 -7.4 0 0 0 0 1.00046 5
2208 2 3.4 -7.2 0 0 0 0 1.00073 5
2209 2 3.6 -7.2 0 0 0 0 1.00066 5
2160 2 3.8 -7.4 0 0 0 0 1.01623 5
2210 2 3.8 -7.2 0 0 0 0 1.00747 5
2161 2 4 -7.4 0 0 0 0 1.02773 5
2211 2 4 -7.2 0 0 0 0 1.02045 5
2162 2 4.2 -7.4 0 0 0 0 1.03235 5
2212 2 4.2 -7.2 0 0 0 0 1.03018 5
2163 2 4.4 -7.4 0 0 0 0 1.03345 5
2164 2 4.6 -7.4 0 0 0 0 1.02962 5
2213 2 4.4 -7.2 0 0 0 0 1.03433 5
2214 2 4.6 -7.2 0 0 0 0 1.03061 5
2165 2 4.8 -7.4 0 0 0 0 1.02917 5
2166 2 5 -7.4 0 0 0 0 1.02903 5
2215 2 4.8 -7.2 0 0 0 0 1.0297 5
2216 2 5 -7.2 0 0 0 0 1.02974 5
2167 2 5.2 -7.4 0 0 0 0 1.02898 5
2168 2 5.4 -7.4 0 0 0 0 1.02889 5
2217 2 5.2 -7.2 0 0 0 0 1.02975 5
2218 2 5.4 -7.2 0 0 0 0 1.0296 5
2169 2 5.6 -7.4 0 0 0 0 1.02873 5
2170 2 5.8 -7.4 0 0 0 0 1.02875 5
2219 2 5.6 -7.2 0 0 0 0 1.02942 5
2220 2 5.8 -7.2 0 0 0 0 1.0293 5
2171 2 6 -7.4 0 0 0 0 1.02866 5
2172 2 6.2 -7.4 0 0 0 0 1.02873 5
2221 2 6 -7.2 0 0 0 0 1.0292 5
2222 2 6.2 -7.2 0 0 0 0 1.02911 5
2173 2 6.4 -7.4 0 0 0 0 1.02832 5
2174 2 6.6 -7.4 0 0 0 0 1.02821 5
2223 2 6.4 -7.2 0 0 0 0 1.02901 5
2224 2 6.6 -7.2 0 0 0 0 1.02893 5
2175 2 6.8 -7.4 0 0 0 0 1.0282 5
2176 2 7 -7.4 0 0 0 0 1.02836 5
2225 2 6.8 -7.2 0 0 0 0 1.02889 5
2226 2 7 -7.2 0 0 0 0 1.02889 5
2177 2 7.2 -7.4 0 0 0 0 1.02837 5
2227 2 7.2 -7.2 0 0 0 0 1.02888 5
2178 2 7.4 -7.4 0 0 0 0 1.02816 5
2179 2 7.6 -7.4 0 0 0 0 1.0282 5
2228 2 7.4 -7.2 0 0 0 0 1.02882 5
2229 2 7.6 -7.2 0 0 0 0 1.02884 5
2180 2 7.8 -7.4 0 0 0 0 1.02828 5
2181 2 8 -7.4 0 0 0 0 1.02824 5
2230 2 7.8 -7.2 0 0 0 0 1.02887 5
2231 2 8 -7.2 0 0 0 0 1.02882 5
2182 2 8.2 -7.4 0 0 0 0 1.02811 5
2183 2 8.4 -7.4 0 0 0 0 1.02819 5
2232 2 8.2 -7.2 0 0 0 0 1.02876 5
2233 2 8.4 -7.2 0 0 0 0 1.0288 5
2184 2 8.6 -7.4 0 0 0 0 1.02838 5
2185 2 8.8 -7.4 0 0 0 0 1.02842 5
2234 2 8.6 -7.2 0 0 0 0 1.02882 5
2235 2 8.8 -7.2 0 0 0 0 1.02883 5
2186 2 9 -7.4 0 0 0 0 1.02838 5
2187 2 9.2 -7.4 0 0 0 0 1.02843 5
2236 2 9 -7.2 0 0 0 0 1.02883 5
2237 2 9.2 -7.2 0 0 0 0 1.02885 5
2188 2 9.4 -7.4 0 0 0 0 1.0283 5
2189 2 9.6 -7.4 0 0 0 0 1.02828 5
2238 2 9.4 -7.2 0 0 0 0 1.02887 5
2239 2 9.6 -7.2 0 0 0 0 1.02885 5
2190 2 9.8 -7.4 0 0 0 0 1.02814 5
2240 2 9.8 -7.2 0 0 0 0 1.02882 5
2191 2 10 -7.4 0 0 0 0 1.02818 5
2241 2 10 -7.2 0 0 0 0 1.02887 5
2192 2 10.2 -7.4 0 0 0 0 1.02846 5
2242 2 10.2 -7.2 0 0 0 0 1.02891 5
2193 2 10.4 -7.4 0 0 0 0 1.02854 5
2243 2 10.4 -7.2 0 0 0 0 1.02893 5
2194 2 10.6 -7.4 0 0 0 0 1.02854 5
2244 2 10.6 -7.2 0 0 0 0 1.02895 5
2195 2 10.8 -7.4 0 0 0 0 1.02857 5
2245 2 10.8 -7.2 0 0 0 0 1.02895 5
16346 1 1.76607 -6.73426 0.02 0 -0.00400797 -0.00203174 1 2
16347 1 1.96006 -6.74554 0.02 0 -0.00340421 -0.000551996 1 2
16348 1 2.15411 -6.73088 0.02 0 -0.0026732 -0.000416146 1 2
16349 1 2.35695 -6.7611 0.02 0 -0.00308437 -0.000417005 1 2
2251 2 2 -7 0 0 0 0 1.00122 5
16350 1 2.57505 -6.75596 0.02 0 -0.00288009 -0.000479799 1 2
16351 1 2.7841 -6.75919 0.02 0 -0.00310662 -0.000420068 1 2
2252 2 2.2 -7 0 0 0 0 1.00038 5
2253 2 2.4 -7 0 0 0 0 1.00028 5
16352 1 2.98848 -6.74368 0.02 0 -0.002582 -0.000363918 1 2
16353 1 3.19725 -6.75716 0.02 0 -0.00300502 -0.00041797 1 2
2254 2 2.6 -7 0 0 0 0 1.00009 5
2255 2 2.8 -7 0 0 0 0 0.999618 5
15661 1 3.60734 -6.76311 0.02 0 -0.00342677 -0.000162238 1 2
16354 1 3.40482 -6.74173 0.02 0 -0.00260491 -0.000387945 1 2
2256 2 3 -7 0 0 0 0 0.999787 5
2257 2 3.2 -7 0 0 0 0 1 5
15662 1 3.80688 -6.73741 0.02 0 -0.00515252 -0.000190347 1 2
15663 1 3.99966 -6.74525 0.02 0 -0.0111916 0.000407272 1 2
2258 2 3.4 -7 0 0 0 0 1.00057 5
2259 2 3.6 -7 0 0 0 0 1.00132 5
2260 2 3.8 -7 0 0 0 0 1.00661 5
15664 1 4.00022 -6.73984 0.0172756 4.06952e-05 -0.0108976 0.000162781 1.01499 0
15665 1 4.0964 -6.82253 0.0034919 -0.00148545 0.000264005 -8.16006e-05 1.04062 0
15666 1 4.267 -6.7279 0.00571134 0.000353638 0.000138173 6.24649e-05 1.03883 0
15667 1 4.39863 -6.57318 0.00963549 0.00199698 -2.07294e-05 1.20167e-05 1.03412 0
2261 2 4 -7 0 0 0 0 1.01656 5
2262 2 4.2 -7 0 0 0 0 1.02813 5
15669 1 4.41561 -6.74239 0.00551903 9.485e-06 1.74655e-05 3.21804e-05 1.03477 0
14985 1 4.55802 -6.76548 0.00481734 5.42023e-05 -1.22457e-05 1.2943e-05 1.0323 0
14986 1 4.70478 -6.72535 0.0051908 0.000374819 -2.35368e-05 7.84313e-06 1.03079 0
2263 2 4.4 -7 0 0 0 0 1.03443 5
2264 2 4.6 -7 0 0 0 0 1.03152 5
14994 1 4.84789 -6.74423 0.00401827 7.77909e-05 -1.93667e-05 6.40504e-06 1.03097 0
14991 1 5.02905 -6.62118 0.00605835 0.00062322 -2.2663e-05 5.24931e-06 1.0302 0
14300 1 5.0011 -6.78173 0.00285976 -0.000252193 -1.34708e-05 3.99176e-06 1.03143 0
2265 2 4.8 -7 0 0 0 0 1.03025 5
2266 2 5 -7 0 0 0 0 1.03031 5
14304 1 5.20054 -6.65814 0.00470139 0.000299076 -1.48034e-05 2.22337e-06 1.03011 0
14308 1 5.23765 -6.7976 0.00231962 -0.000366182 -8.36785e-06 8.5191e-07 1.03124 0
13616 1 5.41715 -6.73954 0.00286372 -0.000108156 -6.45805e-06 -4.84227e-07 1.03035 0
2267 2 5.2 -7 0 0 0 0 1.03034 5
2268 2 5.4 -7 0 0 0 0 1.03011 5
13619 1 5.61843 -6.6387 0.00416115 0.000168526 -3.47561e-06 -3.02969e-06 1.02966 0
12903 1 5.59711 -6.78907 0.00200533 -0.000380527 -2.26272e-06 -1.91327e-06 1.03076 0
12907 1 5.77305 -6.75539 0.00225346 -0.000259911 5.66117e-08 -2.7662e-06 1.03031 0
12210 1 5.94716 -6.76785 0.00194126 -0.000330984 1.93191e-06 -3.60326e-06 1.03035 0
2269 2 5.6 -7 0 0 0 0 1.02993 5
2270 2 5.8 -7 0 0 0 0 1.02978 5
13615 1 5.87142 -6.61331 0.00410682 0.000165691 1.575e-06 -5.5443e-06 1.02943 0
11540 1 6.11222 -6.74041 0.0021124 -0.000237617 3.62493e-06 -4.35872e-06 1.03004 0
11552 1 6.26462 -6.74602 0.001888 -0.000266366 4.29312e-06 -4.62252e-06 1.03001 0
2271 2 6 -7 0 0 0 0 1.02963 5
2272 2 6.2 -7 0 0 0 0 1.02951 5
10855 1 6.42512 -6.76521 0.00157806 -0.000302347 4.35983e-06 -4.6096e-06 1.02997 0
12911 1 6.52499 -6.62334 0.00306712 7.3564e-05 6.19539e-06 -7.21843e-06 1.02907 0
10858 1 6.69901 -6.65756 0.00249869 1.57464e-05 5.2707e-06 -6.16203e-06 1.02909 0
10169 1 6.62084 -6.82108 0.00119007 -0.000495315 3.55079e-06 -3.9564e-06 1.03023 0
2273 2 6.4 -7 0 0 0 0 1.02948 5
2274 2 6.6 -7 0 0 0 0 1.02946 5
10172 1 6.84105 -6.69766 0.00195284 -4.63043e-05 4.24514e-06 -4.99597e-06 1.02918 0
3109 1 6.96806 -6.77975 0.00122105 -0.0003408 2.96481e-06 -3.34513e-06 1.02993 0
3113 1 7.14459 -6.76038 0.00129715 -0.000267052 2.49545e-06 -2.98007e-06 1.02976 0
2275 2 6.8 -7 0 0 0 0 1.02935 5
2276 2 7 -7 0 0 0 0 1.0293 5
11546 1 7.03802 -6.60498 0.00277633 0.00011056 4.38048e-06 -6.06705e-06 1.02891 0
3115 1 7.3252 -6.74032 0.00136097 -0.000176972 2.00322e-06 -2.74409e-06 1.02944 0
3119 1 7.48254 -6.81943 0.000899683 -0.000450086 1.18004e-06 -1.55737e-06 1.03 0
2277 2 7.2 -7 0 0 0 0 1.02927 5
2278 2 7.4 -7 0 0 0 0 1.02928 5
2279 2 7.6 -7 0 0 0 0 1.0293 5
10856 1 7.52712 -6.61565 0.00235565 9.42698e-05 1.97229e-06 -3.7492e-06 1.0288 0
3116 1 7.67723 -6.69344 0.0015738 -1.03558e-05 1.18738e-06 -2.23016e-06 1.029 0
3117 1 7.9328 -6.64743 0.00185583 4.74023e-05 7.70551e-07 -1.98982e-06 1.02883 0
3121 1 7.78724 -6.8135 0.000850251 -0.000406341 6.00266e-07 -9.68529e-07 1.02995 0
3123 1 8.02186 -6.76324 0.00101874 -0.000238778 4.1226e-07 -9.07926e-07 1.02955 0
2280 2 7.8 -7 0 0 0 0 1.02929 5
2281 2 8 -7 0 0 0 0 1.02923 5
3118 1 8.19053 -6.64924 0.00175041 4.56754e-05 3.69527e-07 -1.37057e-06 1.02878 0
3108 1 8.37144 -6.63869 0.00176701 5.83319e-05 8.89891e-08 -1.08227e-06 1.02874 0
3125 1 8.22883 -6.82317 0.000751143 -0.000453168 2.07965e-07 -3.57324e-07 1.02989 0
3126 1 8.47884 -6.77227 0.000911723 -0.000276986 2.60366e-08 -3.66347e-07 1.02965 0
2282 2 8.2 -7 0 0 0 0 1.02923 5
2283 2 8.4 -7 0 0 0 0 1.02922 5
3120 1 8.56999 -6.60409 0.00198086 9.65809e-05 -2.89711e-07 -8.66781e-07 1.02869 0
3127 1 8.66728 -6.77713 0.00085287 -0.000318819 -1.44944e-07 -1.89353e-07 1.02974 0
3128 1 8.85487 -6.7544 0.000954863 -0.000242368 -4.31758e-07 -1.33876e-07 1.02954 0
2284 2 8.6 -7 0 0 0 0 1.02919 5
2285 2 8.8 -7 0 0 0 0 1.02919 5
3122 1 8.74995 -6.59817 0.00198134 0.000101913 -6.55799e-07 -5.99928e-07 1.02869 0
3129 1 9.03262 -6.77261 0.000847192 -0.000324352 -6.18741e-07 3.28972e-08 1.02975 0
3130 1 9.21672 -6.76378 0.000885878 -0.000301429 -9.44395e-07 1.19323e-07 1.02971 0
2286 2 9 -7 0 0 0 0 1.0292 5
2287 2 9.2 -7 0 0 0 0 1.02921 5
3131 1 9.39896 -6.73265 0.0010288 -0.00017822 -1.4178e-06 2.03846e-07 1.02938 0
3132 1 9.56313 -6.79707 0.000734319 -0.000413112 -1.33456e-06 4.12488e-07 1.02994 0
2288 2 9.4 -7 0 0 0 0 1.02923 5
2289 2 9.6 -7 0 0 0 0 1.02929 5
3133 1 9.76626 -6.68846 0.00122078 -4.44433e-05 -2.22327e-06 3.4056e-07 1.02899 0
3134 1 9.86439 -6.82459 0.000645177 -0.000503072 -1.45534e-06 4.86391e-07 1.02999 0
3135 1 10.0533 -6.73024 0.000989802 -0.000182363 -2.10038e-06 3.50617e-07 1.02942 0
2290 2 9.8 -7 0 0 0 0 1.02932 5
2291 2 10 -7 0 0 0 0 1.02931 5
3136 1 10.2257 -6.76264 0.000829648 -0.000323928 -1.8826e-06 3.48954e-07 1.02976 0
3137 1 10.4072 -6.76113 0.000843181 -0.000318312 -1.7733e-06 2.7728e-07 1.02977 0
3138 1 10.5926 -6.76562 0.000831865 -0.000332627 -1.54386e-06 1.73439e-07 1.02981 0
2292 2 10.2 -7 0 0 0 0 1.02927 5
2293 2 10.4 -7 0 0 0 0 1.02929 5
3139 1 10.7843 -6.76275 0.000842101 -0.000321406 -1.26434e-06 2.59814e-08 1.02979 0
3140 1 10.9726 -6.76651 0.000820013 -0.000336388 -8.95704e-07 -1.37084e-07 1.02982 0
2294 2 10.6 -7 0 0 0 0 1.02932 5
2295 2 10.8 -7 0 0 0 0 1.02932 5
16355 1 1.73085 -6.55533 0.02 0 -4.43878e-05 -6.39245e-06 1 2
16356 1 1.93706 -6.55766 0.02 0 0.000471928 0.000648676 1 2
16357 1 1.72079 -6.36917 0.02 0 -9.71058e-10 3.50195e-11 1 2
16358 1 1.92143 -6.36811 0.02 0 6.00625e-05 0.000108975 1 2
16359 1 1.76601 -6.17777 0.02 0 7.30035e-07 8.71145e-07 1 2
16360 1 1.96415 -6.17528 0.02 0 1.13194e-06 4.11785e-06 1 2
16361 1 2.14576 -6.55239 0.02 0 0.000276102 0.000495655 1 2
16362 1 2.3546 -6.57675 0.02 0 0.000183415 0.000410003 1 2
16363 1 2.12241 -6.37182 0.02 0 8.77107e-05 0.000136575 1 2
16364 1 2.3338 -6.39378 0.02 0 0.000134393 0.000181727 1 2
16365 1 2.16802 -6.19145 0.02 0 4.40823e-06 1.0776e-05 1 2
16366 1 2.36781 -6.20716 0.02 0 8.7569e-06 1.71274e-05 1 2
16367 1 2.76048 -6.58171 0.02 0 8.00201e-05 0.000396906 1 2
16368 1 2.55377 -6.57331 0.02 0 0.000122204 0.000397039 1 2
16369 1 2.55287 -6.39507 0.02 0 0.000122293 0.000145005 1 2
16370 1 2.78282 -6.41182 0.02 0 0.000129276 0.000173784 1 2
16371 1 2.56595 -6.21147 0.02 0 9.44534e-06 1.82976e-05 1 2
16372 1 2.76384 -6.23254 0.02 0 1.38906e-05 2.31634e-05 1 2
16373 1 2.98749 -6.5713 0.02 0 9.98561e-05 0.000336763 1 2
16374 1 3.20904 -6.57502 0.02 0 4.654e-05 0.000394395 1 2
16375 1 2.99631 -6.3972 0.02 0 0.000109031 0.000144863 1 2
16376 1 3.1935 -6.38879 0.02 0 0.000111377 0.00013802 1 2
16377 1 2.96547 -6.21344 0.02 0 1.01053e-05 1.72904e-05 1 2
16378 1 3.16485 -6.19278 0.02 0 6.91013e-06 1.40337e-05 1 2
15694 1 3.60442 -6.56957 0.02 0 -0.000171048 0.000361355 1 2
16379 1 3.41224 -6.55391 0.02 0 0.000161348 0.000369086 1 2
16380 1 3.38575 -6.3623 0.02 0 8.58084e-05 0.000118497 1 2
16381 1 3.5876 -6.37376 0.02 0 -0.000266209 0.000109325 1 2
16382 1 3.55526 -6.17725 0.02 0 -0.000158481 2.67073e-05 1 2
15695 1 3.7517 -6.17242 0.02 0 -0.00164851 0.00017949 1 2
15696 1 3.78981 -6.548 0.02 0 -0.00207324 -8.16599e-05 1 2
15698 1 3.98352 -6.55339 0.02 0 -0.00653232 0.000244221 1 2
15699 1 3.79732 -6.36064 0.02 0 -0.00266584 0.000121579 1 2
15700 1 4.00202 -6.36656 0.0105704 0.000633332 -4.79933e-05 -4.37626e-05 1.01613 0
15701 1 3.95791 -6.18432 0.02 0 -0.00538756 0.000572389 1 2
15702 1 4.00012 -6.21023 0.0184319 0.000180326 -0.00627244 0.000721303 1.02084 0
15697 1 4.07682 -6.56455 0.0113738 0.00215107 4.31109e-05 0.000186672 1.02956 0
15704 1 4.21763 -6.58888 0.0090531 0.00280524 8.08919e-05 0.000135971 1.03704 0
15705 1 3.99981 -6.41276 0.02 0 -0.00433508 0.000385531 1.02189 2
15706 1 4.18212 -6.31245 0.00998155 0.00247351 2.0784e-05 -0.00013974 1.03617 0
15708 1 4.16407 -6.12411 0.0103569 0.00233726 0.00015901 8.9778e-05 1.03421 0
15703 1 4.26038 -6.45753 0.00962321 0.0032049 -6.04576e-05 -1.28726e-05 1.03743 0
15707 1 4.36283 -6.35151 0.0114667 0.00324363 -2.74106e-05 -2.39376e-05 1.0347 0
15709 1 4.30896 -6.17881 0.0109948 0.003365 4.59887e-05 -1.88677e-06 1.03505 0
15712 1 4.46492 -6.2275 0.0131207 0.00331852 -3.53243e-05 -6.20285e-06 1.03155 0
15668 1 4.56438 -6.5852 0.00919089 0.00147183 -3.9881e-05 5.19304e-06 1.03093 0
15670 1 4.70681 -6.54466 0.00927894 0.00151707 -4.06083e-05 7.93147e-06 1.03022 0
15711 1 4.50863 -6.43383 0.0117794 0.00256075 -4.64156e-05 2.81404e-06 1.03154 0
15710 1 4.70377 -6.37786 0.0116919 0.00234941 -4.74421e-05 5.60459e-06 1.03031 0
15713 1 4.6937 -6.15047 0.0134336 0.0031526 -4.93737e-05 -6.71173e-06 1.03017 0
15717 1 4.60044 -6.28176 0.0129321 0.00297339 -4.9593e-05 4.97308e-07 1.03039 0
15718 1 4.84237 -6.17591 0.0128448 0.0027526 -4.6856e-05 -3.84002e-06 1.03056 0
14998 1 4.84749 -6.36797 0.011111 0.00202702 -4.31869e-05 4.47673e-06 1.0305 0
14995 1 5.17424 -6.51292 0.00758503 0.000823515 -2.22915e-05 1.97657e-06 1.03022 0
15671 1 4.85073 -6.57036 0.00798054 0.00115342 -3.32309e-05 7.79206e-06 1.03022 0
14982 1 4.97721 -6.47285 0.00905025 0.00130505 -3.31603e-05 5.24893e-06 1.03046 0
15716 1 4.97033 -6.25937 0.0116725 0.00215742 -3.99795e-05 -7.54719e-07 1.03074 0
15001 1 5.10001 -6.16934 0.0120065 0.00218459 -3.47336e-05 -5.63222e-06 1.03076 0
14999 1 5.09789 -6.36528 0.0100043 0.00147617 -3.06591e-05 5.0336e-07 1.03063 0