ITEM: TIMESTEP
58000
ITEM: NUMBER OF ATOMS
12282
ITEM: BOX BOUNDS ff ff pp
0.0000000000000000e+00 2.2000000000000000e+01
-1.0000000000000000e+01 1.0000000000000000e+01
-2.0000000000000000e-02 2.0000000000000000e-02
ITEM: ATOMS id type x y vx vy fx fy c_den c_phase
1501 2 2 -10 0 0 0 0 1 5
1535 2 2 -9.8 0 0 0 0 1 5
1569 2 2 -9.6 0 0 0 0 1 5
1502 2 2.2 -10 0 0 0 0 1 5
1503 2 2.4 -10 0 0 0 0 1 5
1536 2 2.2 -9.8 0 0 0 0 1 5
1537 2 2.4 -9.8 0 0 0 0 1 5
1570 2 2.2 -9.6 0 0 0 0 1 5
1571 2 2.4 -9.6 0 0 0 0 1 5
1504 2 2.6 -10 0 0 0 0 1 5
1505 2 2.8 -10 0 0 0 0 1 5
1538 2 2.6 -9.8 0 0 0 0 1 5
1539 2 2.8 -9.8 0 0 0 0 1 5
1572 2 2.6 -9.6 0 0 0 0 1 5
1573 2 2.8 -9.6 0 0 0 0 1 5
1506 2 3 -10 0 0 0 0 1 5
1540 2 3 -9.8 0 0 0 0 1 5
1574 2 3 -9.6 0 0 0 0 1 5
1507 2 3.2 -10 0 0 0 0 1 5
1541 2 3.2 -9.8 0 0 0 0 1 5
1575 2 3.2 -9.6 0 0 0 0 1 5
1508 2 3.4 -10 0 0 0 0 1 5
1542 2 3.4 -9.8 0 0 0 0 1 5
1576 2 3.4 -9.6 0 0 0 0 1 5
1509 2 3.6 -10 0 0 0 0 1 5
1543 2 3.6 -9.8 0 0 0 0 1 5
1577 2 3.6 -9.6 0 0 0 0 1 5
1510 2 3.8 -10 0 0 0 0 1 5
1544 2 3.8 -9.8 0 0 0 0 1 5
1578 2 3.8 -9.6 0 0 0 0 1 5
1511 2 4 -10 0 0 0 0 1 5
1512 2 4.2 -10 0 0 0 0 1 5
1545 2 4 -9.8 0 0 0 0 1 5
1546 2 4.2 -9.8 0 0 0 0 1 5
1579 2 4 -9.6 0 0 0 0 1 5
1580 2 4.2 -9.6 0 0 0 0 1 5
1513 2 4.4 -10 0 0 0 0 1 5
1514 2 4.6 -10 0 0 0 0 1 5
1547 2 4.4 -9.8 0 0 0 0 1 5
1548 2 4.6 -9.8 0 0 0 0 1 5
1581 2 4.4 -9.6 0 0 0 0 1 5
1582 2 4.6 -9.6 0 0 0 0 1 5
1515 2 4.8 -10 0 0 0 0 1 5
1516 2 5 -10 0 0 0 0 1 5
1549 2 4.8 -9.8 0 0 0 0 1 5
1550 2 5 -9.8 0 0 0 0 1 5
1583 2 4.8 -9.6 0 0 0 0 1 5
1584 2 5 -9.6 0 0 0 0 1 5
1517 2 5.2 -10 0 0 0 0 1 5
1518 2 5.4 -10 0 0 0 0 1 5
1551 2 5.2 -9.8 0 0 0 0 1 5
1552 2 5.4 -9.8 0 0 0 0 1 5
1585 2 5.2 -9.6 0 0 0 0 1 5
1586 2 5.4 -9.6 0 0 0 0 1 5
1519 2 5.6 -10 0 0 0 0 1 5
1553 2 5.6 -9.8 0 0 0 0 1 5
1587 2 5.6 -9.6 0 0 0 0 1 5
1520 2 5.8 -10 0 0 0 0 1 5
1554 2 5.8 -9.8 0 0 0 0 1 5
1588 2 5.8 -9.6 0 0 0 0 1 5
1521 2 6 -10 0 0 0 0 1 5
1555 2 6 -9.8 0 0 0 0 1 5
1589 2 6 -9.6 0 0 0 0 1 5
1522 2 6.2 -10 0 0 0 0 1 5
1523 2 6.4 -10 0 0 0 0 1 5
1556 2 6.2 -9.8 0 0 0 0 1 5
1557 2 6.4 -9.8 0 0 0 0 1 5
1590 2 6.2 -9.6 0 0 0 0 1 5
1591 2 6.4 -9.6 0 0 0 0 1 5
1524 2 6.6 -10 0 0 0 0 1 5
1525 2 6.8 -10 0 0 0 0 1 5
1558 2 6.6 -9.8 0 0 0 0 1 5
1559 2 6.8 -9.8 0 0 0 0 1 5
1592 2 6.6 -9.6 0 0 0 0 1 5
1593 2 6.8 -9.6 0 0 0 0 1 5
1526 2 7 -10 0 0 0 0 1 5
1527 2 7.2 -10 0 0 0 0 1 5
1560 2 7 -9.8 0 0 0 0 1 5
1561 2 7.2 -9.8 0 0 0 0 1 5
1594 2 7 -9.6 0 0 0 0 1 5
1595 2 7.2 -9.6 0 0 0 0 1 5
1603 2 2 -9.4 0 0 0 0 1 5
1637 2 2 -9.2 0 0 0 0 1 5
1604 2 2.2 -9.4 0 0 0 0 1 5
1605 2 2.4 -9.4 0 0 0 0 1 5
1638 2 2.2 -9.2 0 0 0 0 1 5
1639 2 2.4 -9.2 0 0 0 0 1 5
1606 2 2.6 -9.4 0 0 0 0 1 5
1607 2 2.8 -9.4 0 0 0 0 1 5
1640 2 2.6 -9.2 0 0 0 0 1 5
1641 2 2.8 -9.2 0 0 0 0 1 5
1608 2 3 -9.4 0 0 0 0 1 5
1642 2 3 -9.2 0 0 0 0 1 5
1609 2 3.2 -9.4 0 0 0 0 1 5
1643 2 3.2 -9.2 0 0 0 0 1 5
1610 2 3.4 -9.4 0 0 0 0 1 5
1644 2 3.4 -9.2 0 0 0 0 1 5
1611 2 3.6 -9.4 0 0 0 0 1 5
1645 2 3.6 -9.2 0 0 0 0 1 5
1612 2 3.8 -9.4 0 0 0 0 1 5
1646 2 3.8 -9.2 0 0 0 0 1 5
1613 2 4 -9.4 0 0 0 0 1 5
1614 2 4.2 -9.4 0 0 0 0 1 5
1647 2 4 -9.2 0 0 0 0 1 5
1648 2 4.2 -9.2 0 0 0 0 1 5
1615 2 4.4 -9.4 0 0 0 0 1 5
1616 2 4.6 -9.4 0 0 0 0 1 5
1649 2 4.4 -9.2 0 0 0 0 1 5
1650 2 4.6 -9.2 0 0 0 0 1 5
1617 2 4.8 -9.4 0 0 0 0 1 5
1618 2 5 -9.4 0 0 0 0 1 5
1651 2 4.8 -9.2 0 0 0 0 1 5
1652 2 5 -9.2 0 0 0 0 1 5
1619 2 5.2 -9.4 0 0 0 0 1 5
1620 2 5.4 -9.4 0 0 0 0 1 5
1653 2 5.2 -9.2 0 0 0 0 1 5
1654 2 5.4 -9.2 0 0 0 0 1 5
1621 2 5.6 -9.4 0 0 0 0 1 5
1655 2 5.6 -9.2 0 0 0 0 1 5
1622 2 5.8 -9.4 0 0 0 0 1 5
1656 2 5.8 -9.2 0 0 0 0 1 5
1623 2 6 -9.4 0 0 0 0 1 5
1657 2 6 -9.2 0 0 0 0 1 5
1624 2 6.2 -9.4 0 0 0 0 1 5
1625 2 6.4 -9.4 0 0 0 0 1 5
1658 2 6.2 -9.2 0 0 0 0 1 5
1659 2 6.4 -9.2 0 0 0 0 1 5
1626 2 6.6 -9.4 0 0 0 0 1 5
1627 2 6.8 -9.4 0 0 0 0 1 5
1660 2 6.6 -9.2 0 0 0 0 1 5
1661 2 6.8 -9.2 0 0 0 0 1 5
1628 2 7 -9.4 0 0 0 0 1 5
1629 2 7.2 -9.4 0 0 0 0 1 5
1662 2 7 -9.2 0 0 0 0 1 5
1663 2 7.2 -9.2 0 0 0 0 1 5
1671 2 2 -9 0 0 0 0 1 5
1705 2 2 -8.8 0 0 0 0 1 5
1672 2 2.2 -9 0 0 0 0 1 5
1673 2 2.4 -9 0 0 0 0 1 5
1706 2 2.2 -8.8 0 0 0 0 1 5
1707 2 2.4 -8.8 0 0 0 0 1 5
1674 2 2.6 -9 0 0 0 0 1 5
1675 2 2.8 -9 0 0 0 0 1 5
1708 2 2.6 -8.8 0 0 0 0 1 5
1709 2 2.8 -8.8 0 0 0 0 1 5
1676 2 3 -9 0 0 0 0 1 5
1710 2 3 -8.8 0 0 0 0 1 5
1677 2 3.2 -9 0 0 0 0 1 5
1711 2 3.2 -8.8 0 0 0 0 1 5
1678 2 3.4 -9 0 0 0 0 1 5
1712 2 3.4 -8.8 0 0 0 0 1 5
1679 2 3.6 -9 0 0 0 0 1 5
1713 2 3.6 -8.8 0 0 0 0 1 5
1680 2 3.8 -9 0 0 0 0 1 5
1714 2 3.8 -8.8 0 0 0 0 1 5
1681 2 4 -9 0 0 0 0 1 5
1682 2 4.2 -9 0 0 0 0 1 5
1715 2 4 -8.8 0 0 0 0 1 5
1716 2 4.2 -8.8 0 0 0 0 1 5
1683 2 4.4 -9 0 0 0 0 1 5
1684 2 4.6 -9 0 0 0 0 1 5
1717 2 4.4 -8.8 0 0 0 0 1 5
1718 2 4.6 -8.8 0 0 0 0 1 5
1685 2 4.8 -9 0 0 0 0 1 5
1686 2 5 -9 0 0 0 0 1 5
1719 2 4.8 -8.8 0 0 0 0 1 5
1720 2 5 -8.8 0 0 0 0 1 5
1687 2 5.2 -9 0 0 0 0 1 5
1688 2 5.4 -9 0 0 0 0 1 5
1721 2 5.2 -8.8 0 0 0 0 1 5
1722 2 5.4 -8.8 0 0 0 0 1 5
1689 2 5.6 -9 0 0 0 0 1 5
1723 2 5.6 -8.8 0 0 0 0 1 5
1690 2 5.8 -9 0 0 0 0 1 5
1724 2 5.8 -8.8 0 0 0 0 1 5
1691 2 6 -9 0 0 0 0 1 5
1725 2 6 -8.8 0 0 0 0 1 5
1692 2 6.2 -9 0 0 0 0 1 5
1693 2 6.4 -9 0 0 0 0 1 5
1726 2 6.2 -8.8 0 0 0 0 1 5
1727 2 6.4 -8.8 0 0 0 0 1 5
1694 2 6.6 -9 0 0 0 0 1 5
1695 2 6.8 -9 0 0 0 0 1 5
1728 2 6.6 -8.8 0 0 0 0 1 5
1729 2 6.8 -8.8 0 0 0 0 1 5
1696 2 7 -9 0 0 0 0 1 5
1697 2 7.2 -9 0 0 0 0 1 5
1730 2 7 -8.8 0 0 0 0 1 5
1731 2 7.2 -8.8 0 0 0 0 1 5
1739 2 2 -8.6 0 0 0 0 1 5
1773 2 2 -8.4 0 0 0 0 1 5
1740 2 2.2 -8.6 0 0 0 0 1 5
1741 2 2.4 -8.6 0 0 0 0 1 5
1774 2 2.2 -8.4 0 0 0 0 1 5
1775 2 2.4 -8.4 0 0 0 0 1 5
1742 2 2.6 -8.6 0 0 0 0 1 5
1743 2 2.8 -8.6 0 0 0 0 1 5
1776 2 2.6 -8.4 0 0 0 0 1 5
1777 2 2.8 -8.4 0 0 0 0 1 5
1744 2 3 -8.6 0 0 0 0 1 5
1778 2 3 -8.4 0 0 0 0 1 5
1745 2 3.2 -8.6 0 0 0 0 1 5
1779 2 3.2 -8.4 0 0 0 0 1 5
1746 2 3.4 -8.6 0 0 0 0 1 5
1780 2 3.4 -8.4 0 0 0 0 1 5
1747 2 3.6 -8.6 0 0 0 0 1 5
1781 2 3.6 -8.4 0 0 0 0 1 5
1748 2 3.8 -8.6 0 0 0 0 1 5
1782 2 3.8 -8.4 0 0 0 0 1 5
1749 2 4 -8.6 0 0 0 0 1 5
1750 2 4.2 -8.6 0 0 0 0 1 5
1783 2 4 -8.4 0 0 0 0 1 5
1784 2 4.2 -8.4 0 0 0 0 1 5
1751 2 4.4 -8.6 0 0 0 0 1 5
1752 2 4.6 -8.6 0 0 0 0 1 5
1785 2 4.4 -8.4 0 0 0 0 1 5
1786 2 4.6 -8.4 0 0 0 0 1 5
1753 2 4.8 -8.6 0 0 0 0 1 5
1754 2 5 -8.6 0 0 0 0 1 5
1787 2 4.8 -8.4 0 0 0 0 1 5
1788 2 5 -8.4 0 0 0 0 1 5
1755 2 5.2 -8.6 0 0 0 0 1 5
1756 2 5.4 -8.6 0 0 0 0 1 5
1789 2 5.2 -8.4 0 0 0 0 1 5
1790 2 5.4 -8.4 0 0 0 0 1 5
1757 2 5.6 -8.6 0 0 0 0 1 5
1791 2 5.6 -8.4 0 0 0 0 1 5
1758 2 5.8 -8.6 0 0 0 0 1 5
1792 2 5.8 -8.4 0 0 0 0 1 5
1759 2 6 -8.6 0 0 0 0 1 5
1793 2 6 -8.4 0 0 0 0 1 5
1760 2 6.2 -8.6 0 0 0 0 1 5
1761 2 6.4 -8.6 0 0 0 0 1 5
1794 2 6.2 -8.4 0 0 0 0 1 5
1795 2 6.4 -8.4 0 0 0 0 1 5
1762 2 6.6 -8.6 0 0 0 0 1 5
1763 2 6.8 -8.6 0 0 0 0 1 5
1796 2 6.6 -8.4 0 0 0 0 1 5
1797 2 6.8 -8.4 0 0 0 0 1 5
1764 2 7 -8.6 0 0 0 0 1 5
1765 2 7.2 -8.6 0 0 0 0 1 5
1798 2 7 -8.4 0 0 0 0 1 5
1799 2 7.2 -8.4 0 0 0 0 1 5
1807 2 2 -8.2 0 0 0 0 1 5
1841 2 2 -8 0 0 0 0 1 5
1808 2 2.2 -8.2 0 0 0 0 1 5
1809 2 2.4 -8.2 0 0 0 0 1 5
1842 2 2.2 -8 0 0 0 0 1 5
1843 2 2.4 -8 0 0 0 0 1 5
1810 2 2.6 -8.2 0 0 0 0 1 5
1811 2 2.8 -8.2 0 0 0 0 1 5
1844 2 2.6 -8 0 0 0 0 1 5
1845 2 2.8 -8 0 0 0 0 1 5
1812 2 3 -8.2 0 0 0 0 1 5
1846 2 3 -8 0 0 0 0 1 5
1813 2 3.2 -8.2 0 0 0 0 1 5
1847 2 3.2 -8 0 0 0 0 1 5
1814 2 3.4 -8.2 0 0 0 0 1 5
1848 2 3.4 -8 0 0 0 0 1 5
1815 2 3.6 -8.2 0 0 0 0 1 5
1849 2 3.6 -8 0 0 0 0 1 5
1816 2 3.8 -8.2 0 0 0 0 1 5
1850 2 3.8 -8 0 0 0 0 1 5
1817 2 4 -8.2 0 0 0 0 1 5
1818 2 4.2 -8.2 0 0 0 0 1 5
1851 2 4 -8 0 0 0 0 1 5
1852 2 4.2 -8 0 0 0 0 1 5
1819 2 4.4 -8.2 0 0 0 0 1 5
1820 2 4.6 -8.2 0 0 0 0 1 5
1853 2 4.4 -8 0 0 0 0 1 5
1854 2 4.6 -8 0 0 0 0 1 5
1821 2 4.8 -8.2 0 0 0 0 1 5
1822 2 5 -8.2 0 0 0 0 1 5
1855 2 4.8 -8 0 0 0 0 1 5
1856 2 5 -8 0 0 0 0 1 5
1823 2 5.2 -8.2 0 0 0 0 1 5
1824 2 5.4 -8.2 0 0 0 0 1 5
1857 2 5.2 -8 0 0 0 0 1 5
1858 2 5.4 -8 0 0 0 0 1 5
1825 2 5.6 -8.2 0 0 0 0 1 5
1859 2 5.6 -8 0 0 0 0 1 5
1826 2 5.8 -8.2 0 0 0 0 1 5
1860 2 5.8 -8 0 0 0 0 1 5
1827 2 6 -8.2 0 0 0 0 1 5
1861 2 6 -8 0 0 0 0 1 5
1828 2 6.2 -8.2 0 0 0 0 1 5
1829 2 6.4 -8.2 0 0 0 0 1 5
1862 2 6.2 -8 0 0 0 0 1 5
1863 2 6.4 -8 0 0 0 0 1 5
1830 2 6.6 -8.2 0 0 0 0 1 5
1831 2 6.8 -8.2 0 0 0 0 1 5
1864 2 6.6 -8 0 0 0 0 1 5
1865 2 6.8 -8 0 0 0 0 1 5
1832 2 7 -8.2 0 0 0 0 1 5
1833 2 7.2 -8.2 0 0 0 0 1 5
1866 2 7 -8 0 0 0 0 1 5
1867 2 7.2 -8 0 0 0 0 1 5
1875 2 2 -7.8 0 0 0 0 1 5
1909 2 2 -7.6 0 0 0 0 1 5
1943 2 2 -7.4 0 0 0 0 1.00047 5
1876 2 2.2 -7.8 0 0 0 0 1 5
1877 2 2.4 -7.8 0 0 0 0 1 5
1910 2 2.2 -7.6 0 0 0 0 1 5
1911 2 2.4 -7.6 0 0 0 0 1 5
1944 2 2.2 -7.4 0 0 0 0 0.999717 5
1945 2 2.4 -7.4 0 0 0 0 1.00102 5
1878 2 2.6 -7.8 0 0 0 0 1 5
1879 2 2.8 -7.8 0 0 0 0 1 5
1912 2 2.6 -7.6 0 0 0 0 1 5
1913 2 2.8 -7.6 0 0 0 0 1 5
1946 2 2.6 -7.4 0 0 0 0 1.00052 5
1947 2 2.8 -7.4 0 0 0 0 0.99779 5
1880 2 3 -7.8 0 0 0 0 1 5
1914 2 3 -7.6 0 0 0 0 1 5
1948 2 3 -7.4 0 0 0 0 1.00078 5
1881 2 3.2 -7.8 0 0 0 0 1 5
1915 2 3.2 -7.6 0 0 0 0 1 5
1949 2 3.2 -7.4 0 0 0 0 1.0008 5
1882 2 3.4 -7.8 0 0 0 0 1 5
1916 2 3.4 -7.6 0 0 0 0 1 5
1950 2 3.4 -7.4 0 0 0 0 1.00116 5
1883 2 3.6 -7.8 0 0 0 0 1 5
1917 2 3.6 -7.6 0 0 0 0 1 5
1951 2 3.6 -7.4 0 0 0 0 0.996811 5
1884 2 3.8 -7.8 0 0 0 0 1 5
1918 2 3.8 -7.6 0 0 0 0 1 5
1952 2 3.8 -7.4 0 0 0 0 1.04645 5
1885 2 4 -7.8 0 0 0 0 1 5
1886 2 4.2 -7.8 0 0 0 0 1 5
1919 2 4 -7.6 0 0 0 0 1 5
1920 2 4.2 -7.6 0 0 0 0 1 5
1953 2 4 -7.4 0 0 0 0 1.03792 5
1954 2 4.2 -7.4 0 0 0 0 1.04041 5
1887 2 4.4 -7.8 0 0 0 0 1 5
1888 2 4.6 -7.8 0 0 0 0 1 5
1921 2 4.4 -7.6 0 0 0 0 1 5
1922 2 4.6 -7.6 0 0 0 0 1 5
1955 2 4.4 -7.4 0 0 0 0 1.03989 5
1956 2 4.6 -7.4 0 0 0 0 1.03584 5
1889 2 4.8 -7.8 0 0 0 0 1 5
1890 2 5 -7.8 0 0 0 0 1 5
1923 2 4.8 -7.6 0 0 0 0 1 5
1924 2 5 -7.6 0 0 0 0 1 5
1957 2 4.8 -7.4 0 0 0 0 1.03549 5
1958 2 5 -7.4 0 0 0 0 1.035 5
1891 2 5.2 -7.8 0 0 0 0 1 5
1892 2 5.4 -7.8 0 0 0 0 1 5
1925 2 5.2 -7.6 0 0 0 0 1 5
1926 2 5.4 -7.6 0 0 0 0 1 5
1959 2 5.2 -7.4 0 0 0 0 1.03486 5
1960 2 5.4 -7.4 0 0 0 0 1.03462 5
1893 2 5.6 -7.8 0 0 0 0 1 5
1927 2 5.6 -7.6 0 0 0 0 1 5
1961 2 5.6 -7.4 0 0 0 0 1.03446 5
1894 2 5.8 -7.8 0 0 0 0 1 5
1928 2 5.8 -7.6 0 0 0 0 1 5
1962 2 5.8 -7.4 0 0 0 0 1.03428 5
1895 2 6 -7.8 0 0 0 0 1 5
1929 2 6 -7.6 0 0 0 0 1 5
1963 2 6 -7.4 0 0 0 0 1.03385 5
1896 2 6.2 -7.8 0 0 0 0 1 5
1897 2 6.4 -7.8 0 0 0 0 1 5
1930 2 6.2 -7.6 0 0 0 0 1 5
1931 2 6.4 -7.6 0 0 0 0 1 5
1964 2 6.2 -7.4 0 0 0 0 1.03375 5
1965 2 6.4 -7.4 0 0 0 0 1.03377 5
1898 2 6.6 -7.8 0 0 0 0 1 5
1899 2 6.8 -7.8 0 0 0 0 1 5
1932 2 6.6 -7.6 0 0 0 0 1 5
1933 2 6.8 -7.6 0 0 0 0 1 5
1966 2 6.6 -7.4 0 0 0 0 1.03352 5
1967 2 6.8 -7.4 0 0 0 0 1.03335 5
1900 2 7 -7.8 0 0 0 0 1 5
1901 2 7.2 -7.8 0 0 0 0 1 5
1934 2 7 -7.6 0 0 0 0 1 5
1935 2 7.2 -7.6 0 0 0 0 1 5
1968 2 7 -7.4 0 0 0 0 1.03325 5
1969 2 7.2 -7.4 0 0 0 0 1.03306 5
1977 2 2 -7.2 0 0 0 0 1.00011 5
2011 2 2 -7 0 0 0 0 1.00081 5
1978 2 2.2 -7.2 0 0 0 0 0.999393 5
1979 2 2.4 -7.2 0 0 0 0 1.0009 5
2012 2 2.2 -7 0 0 0 0 0.999486 5
2013 2 2.4 -7 0 0 0 0 1.0002 5
1980 2 2.6 -7.2 0 0 0 0 0.999269 5
1981 2 2.8 -7.2 0 0 0 0 0.999488 5
2014 2 2.6 -7 0 0 0 0 0.999562 5
2015 2 2.8 -7 0 0 0 0 0.999703 5
1982 2 3 -7.2 0 0 0 0 0.999974 5
2016 2 3 -7 0 0 0 0 0.999924 5
1983 2 3.2 -7.2 0 0 0 0 1.00051 5
2017 2 3.2 -7 0 0 0 0 1.00018 5
1984 2 3.4 -7.2 0 0 0 0 1.00066 5
2018 2 3.4 -7 0 0 0 0 1.00057 5
1985 2 3.6 -7.2 0 0 0 0 1.00263 5
2019 2 3.6 -7 0 0 0 0 1.00446 5
1986 2 3.8 -7.2 0 0 0 0 1.02686 5
2020 2 3.8 -7 0 0 0 0 1.02148 5
1987 2 4 -7.2 0 0 0 0 1.03355 5
1988 2 4.2 -7.2 0 0 0 0 1.03582 5
2021 2 4 -7 0 0 0 0 1.03054 5
2022 2 4.2 -7 0 0 0 0 1.03589 5
1989 2 4.4 -7.2 0 0 0 0 1.03975 5
1990 2 4.6 -7.2 0 0 0 0 1.03711 5
2023 2 4.4 -7 0 0 0 0 1.0403 5
2024 2 4.6 -7 0 0 0 0 1.03817 5
1991 2 4.8 -7.2 0 0 0 0 1.03646 5
1992 2 5 -7.2 0 0 0 0 1.03629 5
2025 2 4.8 -7 0 0 0 0 1.03725 5
2026 2 5 -7 0 0 0 0 1.03717 5
1993 2 5.2 -7.2 0 0 0 0 1.03611 5
1994 2 5.4 -7.2 0 0 0 0 1.03573 5
2027 2 5.2 -7 0 0 0 0 1.03691 5
2028 2 5.4 -7 0 0 0 0 1.03651 5
1995 2 5.6 -7.2 0 0 0 0 1.03547 5
2029 2 5.6 -7 0 0 0 0 1.03628 5
1996 2 5.8 -7.2 0 0 0 0 1.03522 5
2030 2 5.8 -7 0 0 0 0 1.03595 5
1997 2 6 -7.2 0 0 0 0 1.03488 5
2031 2 6 -7 0 0 0 0 1.03559 5
1998 2 6.2 -7.2 0 0 0 0 1.03468 5
1999 2 6.4 -7.2 0 0 0 0 1.03445 5
2032 2 6.2 -7 0 0 0 0 1.0353 5
2033 2 6.4 -7 0 0 0 0 1.03502 5
2000 2 6.6 -7.2 0 0 0 0 1.03424 5
2001 2 6.8 -7.2 0 0 0 0 1.03404 5
2034 2 6.6 -7 0 0 0 0 1.03486 5
2035 2 6.8 -7 0 0 0 0 1.03465 5
2002 2 7 -7.2 0 0 0 0 1.03383 5
2003 2 7.2 -7.2 0 0 0 0 1.03363 5
2036 2 7 -7 0 0 0 0 1.03437 5
2037 2 7.2 -7 0 0 0 0 1.03416 5
13969 1 1.21881 -6.75534 0.02 0 -4.56414e-11 -2.64008e-11 1 2
13968 1 1.2458 -6.58047 0.02 0 -1.68845e-13 -2.05923e-14 1 2
13970 1 1.42252 -6.7545 0.02 0 -2.58619e-06 -1.52208e-06 1 2
13971 1 1.62134 -6.73795 0.02 0 -0.000300371 -0.000148818 1 2
13972 1 1.46221 -6.57021 0.02 0 3.51249e-08 1.81241e-07 1 2
13973 1 1.66837 -6.55898 0.02 0 2.39776e-06 6.19631e-05 1 2
13974 1 1.81891 -6.75641 0.02 0 -0.00265693 -0.000945357 1 2
13975 1 2.01568 -6.75355 0.02 0 -0.00379076 -0.00080447 1 2
13976 1 1.86466 -6.56659 0.02 0 -3.77627e-05 0.000398261 1 2
13977 1 2.06011 -6.56457 0.02 0 6.0503e-05 0.000606877 1 2
13978 1 2.21439 -6.74256 0.02 0 -0.00285361 -0.000657599 1 2
13979 1 2.41287 -6.75576 0.02 0 -0.00296904 -0.000598189 1 2
13980 1 2.25461 -6.56 0.02 0 0.000168924 0.000607245 1 2
13981 1 2.44501 -6.56034 0.02 0 0.000172005 0.000515877 1 2
13982 1 2.61338 -6.76076 0.02 0 -0.00310176 -0.000518262 1 2
13983 1 2.81552 -6.74084 0.02 0 -0.00248202 -0.000525952 1 2
13984 1 2.63714 -6.57482 0.02 0 6.54819e-05 0.000457512 1 2
13985 1 2.84567 -6.55934 0.02 0 0.000120865 0.000474275 1 2
13640 1 3.21371 -6.73915 0.02 0 -0.00256443 -0.000520454 1 2
13642 1 3.24751 -6.55076 0.02 0 0.00015572 0.00049304 1 2
13986 1 3.01331 -6.75664 0.02 0 -0.00305591 -0.000549194 1 2
13987 1 3.04905 -6.56809 0.02 0 9.61998e-05 0.000519076 1 2
13641 1 3.41892 -6.76661 0.02 0 -0.00320246 -0.000300656 1 2
13643 1 3.43519 -6.57535 0.02 0 7.24907e-05 0.000434487 1 2
13646 1 3.62812 -6.56407 0.02 0 -0.00114587 0.000426244 1 2
13644 1 3.63461 -6.74572 0.02 0 -0.00411701 0.000189932 1 2
13645 1 3.83309 -6.75043 0.02 0 -0.00851924 -0.000541157 1 2
13647 1 3.83566 -6.56481 0.02 0 -0.00568039 0.000806705 1 2
13648 1 4.00011 -6.75585 0.0170373 7.16253e-05 -0.0118506 0.000286501 1.03026 0
13650 1 4.00564 -6.5695 0.00989344 0.00197849 0.000171578 -4.03818e-06 1.0338 0
13649 1 4.00014 -6.80732 0.0166458 -2.02405e-05 -0.0134169 -8.09622e-05 1.0371 0
13651 1 4.00842 -6.57128 0.00981977 0.00195692 0.000173464 -4.17714e-06 1.03437 0
13652 1 4.20916 -6.62806 0.00951438 0.00334917 0.000416994 0.00039041 1.04346 0
13654 1 4.18865 -6.47719 0.0108569 0.00302364 8.47214e-05 9.40749e-05 1.04441 0
13653 1 4.34001 -6.58392 0.0105031 0.00253177 0.000105978 5.87283e-05 1.04191 0
13655 1 4.41044 -6.4416 0.0130143 0.00295035 -5.44181e-06 -1.47002e-05 1.04037 0
13656 1 4.14413 -6.80318 0.00621698 1.3377e-05 0.00121901 0.000237957 1.04912 0
13659 1 4.48252 -6.58624 0.0104879 0.00178776 -8.94701e-06 -2.06729e-06 1.03879 0
13274 1 4.33603 -6.75823 0.00634042 -9.68731e-05 0.00025949 8.15209e-05 1.04537 0
13657 1 4.61052 -6.56492 0.0103354 0.00162949 -2.08274e-05 4.96832e-06 1.03747 0
13270 1 4.73138 -6.49 0.0110083 0.00182425 -1.50283e-05 1.37345e-05 1.03721 0
13276 1 4.49786 -6.75799 0.00576637 5.25432e-06 1.75055e-05 1.65404e-05 1.04003 0
13271 1 4.80837 -6.60097 0.00824506 0.00108832 -1.59151e-05 1.03285e-05 1.03693 0
13280 1 4.65189 -6.72376 0.00595984 0.0003343 -2.53389e-05 2.50205e-06 1.03791 0
13289 1 4.78588 -6.7865 0.00373884 -0.000317912 -1.5635e-05 4.32005e-06 1.03878 0
13284 1 4.94205 -6.5885 0.00774925 0.000852789 -1.41025e-05 1.16418e-05 1.03691 0
13281 1 5.08774 -6.57202 0.00741694 0.000727944 -8.94518e-06 1.13232e-05 1.03677 0
12936 1 4.96449 -6.72777 0.00433108 4.55315e-05 -1.25452e-05 7.79104e-06 1.03757 0
12940 1 5.22425 -6.57296 0.00684103 0.000540718 -2.83353e-06 1.0465e-05 1.03651 0
12949 1 5.09097 -6.80744 0.00269642 -0.000649766 -7.93204e-06 5.56862e-06 1.03867 0
12934 1 5.43566 -6.54389 0.00664638 0.0004568 8.14912e-06 9.84062e-06 1.03604 0
12953 1 5.25167 -6.6976 0.00421572 3.66053e-05 -3.03122e-06 7.45211e-06 1.03681 0
12604 1 5.37231 -6.73166 0.00329704 -0.000220569 -7.11253e-07 6.08208e-06 1.03697 0
12941 1 5.55174 -6.61921 0.00499042 0.000199516 9.3745e-06 7.69123e-06 1.03587 0
12617 1 5.50315 -6.79781 0.00222146 -0.00061923 5.76138e-07 3.22092e-06 1.03762 0
12609 1 5.76636 -6.5053 0.00622836 0.000333157 2.09028e-05 8.8367e-06 1.03547 0
12288 1 5.69058 -6.65705 0.0039842 4.68265e-05 1.05019e-05 6.2027e-06 1.03577 0
12601 1 5.89282 -6.57948 0.00482965 0.000133282 1.91351e-05 6.72982e-06 1.03522 0
11882 1 5.73833 -6.79892 0.00197852 -0.000625988 4.40489e-06 2.19952e-06 1.0372 0
12612 1 6.06496 -6.61784 0.00394157 4.52794e-05 1.85785e-05 5.39543e-06 1.03501 0
11544 1 5.90527 -6.72685 0.00262033 -0.000234676 9.63365e-06 3.82033e-06 1.0359 0
11552 1 6.05744 -6.79686 0.00173813 -0.000627058 7.14736e-06 1.39794e-06 1.03654 0
12292 1 6.22713 -6.58766 0.00408663 3.67411e-05 2.18281e-05 4.94177e-06 1.03477 0
12295 1 6.38294 -6.58552 0.00386498 1.6015e-05 2.30845e-05 3.97761e-06 1.03458 0
11164 1 6.23248 -6.74835 0.00209848 -0.000394257 1.10406e-05 1.93539e-06 1.03582 0
11887 1 6.52628 -6.56692 0.00388822 1.73603e-05 2.51643e-05 2.79834e-06 1.03436 0
11323 1 6.39446 -6.75528 0.00186017 -0.000444385 1.15654e-05 1.01227e-06 1.03569 0
11891 1 6.65616 -6.6005 0.00333223 -1.47799e-05 2.41786e-05 1.23841e-06 1.03423 0
10507 1 6.55605 -6.78172 0.0015423 -0.000546946 1.11645e-05 -2.78467e-07 1.03574 0
11547 1 6.79118 -6.62297 0.00290814 -3.72036e-05 2.34415e-05 -2.05233e-07 1.03411 0
11172 1 6.95699 -6.60361 0.00295437 -2.27087e-05 2.54742e-05 -1.65587e-06 1.03388 0
10519 1 6.7522 -6.79105 0.0013903 -0.00055478 1.2061e-05 -1.3938e-06 1.03555 0
10189 1 6.94354 -6.77565 0.00140373 -0.000477035 1.40213e-05 -2.24472e-06 1.03515 0
10850 1 7.10116 -6.59399 0.00291366 -1.35411e-05 2.64638e-05 -3.13591e-06 1.03372 0
11556 1 7.25022 -6.59223 0.00280143 1.00874e-06 2.65757e-05 -4.51087e-06 1.03358 0
3109 1 7.12802 -6.76668 0.00135957 -0.000439395 1.53576e-05 -3.22857e-06 1.03487 0
3113 1 7.30345 -6.77514 0.00121331 -0.000464017 1.5516e-05 -3.9598e-06 1.03481 0
13988 1 1.26308 -6.2288 0.02 0 0 0 1 2
13989 1 1.27257 -6.4079 0.02 0 0 0 1 2
13990 1 1.47494 -6.38721 0.02 0 5.2291e-09 2.95744e-08 1 2
13991 1 1.48498 -6.20378 0.02 0 8.81514e-11 6.26551e-10 1 2
13992 1 1.68227 -6.3754 0.02 0 1.79136e-06 1.09849e-05 1 2
13993 1 1.69538 -6.18987 0.02 0 4.52753e-08 4.24631e-07 1 2
13994 1 1.8865 -6.37705 0.02 0 1.67754e-05 7.74146e-05 1 2
13995 1 1.89877 -6.184 0.02 0 5.00032e-07 3.5779e-06 1 2
13996 1 2.08512 -6.37392 0.02 0 5.92948e-05 0.0001409 1 2
13997 1 2.10466 -6.18589 0.02 0 3.3663e-06 1.11956e-05 1 2
13998 1 2.28541 -6.37283 0.02 0 9.53065e-05 0.000174773 1 2
13999 1 2.48522 -6.36822 0.02 0 9.18629e-05 0.000158322 1 2
14000 1 2.31092 -6.18342 0.02 0 6.03729e-06 1.54313e-05 1 2
14001 1 2.51568 -6.17861 0.02 0 5.6067e-06 1.39363e-05 1 2
14002 1 2.68212 -6.39271 0.02 0 0.00010558 0.000189615 1 2
14003 1 2.87914 -6.36863 0.02 0 8.0832e-05 0.000150222 1 2
14004 1 2.7119 -6.19761 0.02 0 7.44787e-06 1.86904e-05 1 2
14005 1 2.90504 -6.16742 0.02 0 3.81837e-06 1.03661e-05 1 2
13660 1 3.2674 -6.35963 0.02 0 7.45e-05 0.000128616 1 2
13661 1 3.2987 -6.17071 0.02 0 4.1806e-06 1.09458e-05 1 2
14006 1 3.07099 -6.37707 0.02 0 9.03571e-05 0.000152044 1 2
14007 1 3.09964 -6.1793 0.02 0 4.81733e-06 1.225e-05 1 2
13662 1 3.46276 -6.37801 0.02 0 5.15812e-05 0.000149819 1 2
13663 1 3.49165 -6.17475 0.02 0 -6.54532e-05 1.2056e-05 1 2
13664 1 3.65762 -6.37882 0.02 0 -0.00125216 0.000274021 1 2
13666 1 3.68304 -6.18522 0.02 0 -0.00136618 7.59343e-05 1 2
13665 1 3.85026 -6.37692 0.02 0 -0.00469926 0.000983749 1 2
13667 1 3.87755 -6.18093 0.02 0 -0.00454593 0.000374182 1 2
13668 1 4.00001 -6.36873 0.0183672 0.000272214 -0.00653139 0.00108885 1.02791 0
13670 1 3.99999 -6.16303 0.02 0 -0.00618955 0.00093405 1.02828 2
13669 1 3.99964 -6.39661 0.02 0 -0.00426139 0.000874252 1.03022 2
13658 1 4.40585 -6.27224 0.014375 0.00346454 3.20319e-05 1.18138e-05 1.04016 0
13671 1 4.22697 -6.16839 0.0126319 0.0029036 0.000219172 3.09492e-05 1.04367 0
13672 1 4.26816 -6.3537 0.0123031 0.00328365 8.08483e-05 -2.97396e-05 1.04402 0
13674 1 4 -6.10619 0.02 0 -0.00600175 0.000653251 1.02855 2
13673 1 4.10758 -6.26435 0.0119151 0.00193675 0.000296552 -0.000174419 1.04089 0
13675 1 4.36755 -6.12302 0.0143891 0.0037148 5.38249e-05 3.95025e-05 1.0405 0
13676 1 4.54358 -6.17587 0.0149975 0.0036288 -5.42163e-06 2.63886e-05 1.03771 0
13272 1 4.68428 -6.33387 0.0133758 0.00273948 -1.10941e-05 2.02837e-05 1.03743 0
13677 1 4.54874 -6.36289 0.0137436 0.00291266 -9.75515e-06 1.48662e-05 1.03801 0
13679 1 4.62065 -6.02847 0.0151763 0.0039862 -1.04174e-05 3.02573e-05 1.03697 0
13296 1 4.7148 -6.17845 0.0143672 0.00334258 -1.04685e-05 2.51479e-05 1.03732 0
13275 1 4.8321 -6.34825 0.0123409 0.00227437 -1.17589e-05 1.80325e-05 1.03745 0
13273 1 4.96124 -6.26147 0.0125022 0.00233579 -7.72232e-06 1.94361e-05 1.03749 0
13291 1 4.86611 -6.13602 0.0138821 0.00315463 -9.46645e-06 2.48435e-05 1.03741 0
13279 1 4.97015 -6.43073 0.0104585 0.00154999 -1.08188e-05 1.50219e-05 1.03725 0
13292 1 5.02976 -6.0931 0.0134047 0.00288698 -3.07212e-06 2.28579e-05 1.03733 0
13277 1 5.14228 -6.41067 0.00986496 0.00127292 -2.81121e-06 1.42901e-05 1.03699 0
13278 1 5.11558 -6.25123 0.0118456 0.00197827 -4.06511e-07 1.77387e-05 1.03725 0
13298 1 5.18624 -6.09752 0.0127504 0.00244522 5.69297e-06 2.04235e-05 1.03705 0
13283 1 5.32351 -6.14428 0.0118492 0.0019309 1.35347e-05 1.78741e-05 1.03676 0
13282 1 5.27339 -6.30984 0.0105203 0.0014046 7.03978e-06 1.51923e-05 1.03683 0
13285 1 5.34098 -6.44828 0.00847363 0.000825406 6.80635e-06 1.218e-05 1.03643 0
13302 1 5.45218 -6.06302 0.0119103 0.00196328 2.17813e-05 1.80383e-05 1.03643 0
13287 1 5.43082 -6.26401 0.0103265 0.00128859 1.69023e-05 1.47427e-05 1.0365 0
13286 1 5.58009 -6.14061 0.0108138 0.00144449 2.64199e-05 1.58405e-05 1.03623 0
13288 1 5.54089 -6.33806 0.00907425 0.000896329 1.99903e-05 1.28886e-05 1.03617 0
13309 1 5.72503 -6.16169 0.0100724 0.00114078 3.07597e-05 1.45176e-05 1.03596 0
12944 1 5.61439 -6.46575 0.00723016 0.000509177 1.83378e-05 1.03144e-05 1.03579 0
13290 1 5.70786 -6.31815 0.00865927 0.000755705 2.65574e-05 1.223e-05 1.03589 0
12935 1 5.84756 -6.05546 0.0104439 0.00126277 3.44926e-05 1.51912e-05 1.03574 0
12938 1 5.93495 -6.16871 0.0092601 0.000847933 3.43391e-05 1.27824e-05 1.03562 0
12937 1 5.85517 -6.3219 0.00810783 0.000593699 2.97882e-05 1.11601e-05 1.03562 0
12939 1 6.10991 -6.0696 0.00948179 0.000871754 3.59953e-05 1.23396e-05 1.03535 0
12942 1 6.05286 -6.24904 0.00817568 0.000555946 3.39112e-05 1.06527e-05 1.03539 0
12945 1 5.95761 -6.4199 0.00673613 0.000339716 2.79172e-05 9.03077e-06 1.03529 0
12600 1 6.09536 -6.4572 0.00594939 0.000224504 2.77837e-05 7.66331e-06 1.03501 0
12947 1 6.25308 -6.12604 0.00863418 0.000604953 3.57091e-05 9.89403e-06 1.03514 0
12950 1 6.19082 -6.28667 0.00743559 0.000387207 3.37939e-05 8.80643e-06 1.03515 0
12605 1 6.26258 -6.42476 0.00591176 0.00019046 3.01702e-05 6.6594e-06 1.03483 0
12948 1 6.36771 -6.25173 0.00729906 0.000325821 3.47932e-05 7.06421e-06 1.03493 0
12952 1 6.53152 -6.16912 0.00761164 0.000335359 3.52911e-05 5.31996e-06 1.03477 0
12132 1 6.42464 -6.41529 0.00566308 0.000140948 3.12683e-05 5.0455e-06 1.03461 0
12608 1 6.556 -6.31806 0.00630398 0.000170574 3.41088e-05 3.91209e-06 1.0346 0
12603 1 6.69808 -6.17992 0.00718217 0.000239463 3.50656e-05 2.50769e-06 1.03457 0
12616 1 6.6515 -6.42269 0.00517515 8.18667e-05 3.20257e-05 2.17346e-06 1.03431 0
12611 1 6.84019 -6.22997 0.00651862 0.000145303 3.49357e-05 -4.65524e-08 1.03437 0
12613 1 7.02602 -6.14754 0.00687823 0.000153812 3.38062e-05 -2.52801e-06 1.03423 0
12135 1 6.79 -6.38713 0.00526852 7.00338e-05 3.33908e-05 2.48015e-07 1.03421 0
11894 1 6.90449 -6.47029 0.00434804 3.71915e-05 3.153e-05 -1.26549e-06 1.03395 0
12136 1 6.99007 -6.30209 0.00568815 7.53638e-05 3.45537e-05 -2.46287e-06 1.03412 0
12291 1 7.08697 -6.40807 0.00465904 4.1397e-05 3.31879e-05 -3.63672e-06 1.03385 0
12615 1 7.1739 -6.17728 0.00644095 0.000105366 3.33109e-05 -4.83361e-06 1.03407 0
12287 1 7.29202 -6.25228 0.00569827 6.46631e-05 3.28428e-05 -6.39571e-06 1.03389 0
12296 1 7.2299 -6.42124 0.00437427 4.11252e-05 3.24639e-05 -5.37931e-06 1.03368 0
12784 1 6.66068 -0.219567 0.0134624 -0.000130132 3.10666e-07 -6.21011e-06 1.03394 0
14008 1 1.23864 -5.85696 0.02 0 0 0 1 2
14009 1 1.25859 -6.0486 0.02 0 0 0 1 2
14010 1 1.46415 -6.01867 0.02 0 2.47772e-17 8.8309e-16 1 2
14011 1 1.42834 -5.82533 0.02 0 0 0 1 2
14012 1 1.62406 -5.81429 0.02 0 0 0 1 2
14013 1 1.67217 -6.00318 0.02 0 5.33464e-12 4.9096e-10 1 2
14014 1 1.87975 -5.99131 0.02 0 1.19113e-09 1.40928e-08 1 2
14015 1 1.82801 -5.80594 0.02 0 0 0 1 2
14016 1 2.04787 -5.81645 0.02 0 3.95075e-11 1.33806e-10 1 2
14017 1 2.0866 -5.99936 0.02 0 1.92234e-08 9.29765e-08 1 2
14018 1 2.29084 -5.99235 0.02 0 2.74154e-08 1.12133e-07 1 2
14020 1 2.26418 -5.80089 0.02 0 3.68765e-11 1.17476e-10 1 2
14021 1 2.47718 -5.80157 0.02 0 2.77273e-11 8.05053e-11 1 2
14019 1 2.49577 -5.99012 0.02 0 2.58492e-08 1.09334e-07 1 2
14022 1 2.6983 -5.99593 0.02 0 2.60117e-08 1.15915e-07 1 2
14023 1 2.89456 -5.9702 0.02 0 1.34491e-08 5.12475e-08 1 2
14024 1 2.6823 -5.79422 0.02 0 1.59342e-11 4.69223e-11 1 2
14025 1 2.88701 -5.77703 0.02 0 4.41257e-12 1.72573e-11 1 2
13680 1 3.2898 -5.9796 0.02 0 1.39838e-08 6.72836e-08 1 2
13681 1 3.27906 -5.78431 0.02 0 9.18068e-12 3.17408e-11 1 2
14026 1 3.09167 -5.97734 0.02 0 1.17572e-08 5.00677e-08 1 2
14027 1 3.08326 -5.77065 0.02 0 3.66317e-12 1.68297e-11 1 2
13682 1 3.48972 -5.97299 0.02 0 -6.20647e-05 1.4159e-06 1 2
13683 1 3.47604 -5.77559 0.02 0 -4.75407e-05 -4.93754e-07 1 2
13684 1 3.68614 -5.98699 0.02 0 -0.00137499 -1.29129e-05 1 2
13685 1 3.67113 -5.78504 0.02 0 -0.00133729 -3.97175e-05 1 2
13686 1 3.8659 -5.78886 0.02 0 -0.00499564 -0.000252982 1 2
13687 1 3.88244 -5.9853 0.02 0 -0.00483212 -9.517e-05 1 2
13690 1 4.0002 -5.76702 0.0184381 3.98051e-05 -0.00624761 0.00015922 1.02744 0
13688 1 3.99933 -5.95041 0.02 0 -0.00391213 0.000325132 1.02676 2
13678 1 4.46111 -6.00056 0.0151944 0.00398089 -2.91176e-06 3.09428e-05 1.03787 0
13689 1 4.10506 -5.96562 0.0123605 0.00152369 -0.000253065 0.0001218 1.03856 0
13691 1 4.00977 -5.73802 0.0113431 0.000808969 2.7135e-05 7.29815e-05 1.02992 0
13692 1 4.26854 -5.98533 0.0129467 0.00320814 -7.77246e-06 6.75331e-05 1.04188 0
13694 1 4.19558 -5.82366 0.0120973 0.00222549 2.12535e-05 -7.85934e-05 1.04084 0
13693 1 4.37328 -5.85197 0.0143715 0.00379377 1.0903e-05 2.07449e-05 1.03872 0
13695 1 4.31268 -5.71151 0.0132461 0.00322559 1.48645e-05 3.5919e-05 1.03933 0
13696 1 4.52672 -5.84031 0.0152036 0.00418357 -8.48622e-06 3.00456e-05 1.0366 0
13698 1 4.46849 -5.65762 0.0147538 0.00395085 -3.07344e-06 2.53224e-05 1.03645 0
13294 1 4.78467 -5.99856 0.0147304 0.0038458 -1.16407e-05 2.92342e-05 1.03709 0
13293 1 4.95044 -5.95587 0.0142747 0.00360378 -7.20874e-06 2.71807e-05 1.03719 0
13295 1 4.85446 -5.82809 0.0147751 0.00412575 -1.27721e-05 2.96797e-05 1.03689 0
13697 1 4.68405 -5.8672 0.0151405 0.0042448 -1.47318e-05 3.14808e-05 1.03658 0
13699 1 4.62185 -5.69994 0.0150606 0.00431288 -1.32133e-05 2.76148e-05 1.03606 0
13317 1 4.77781 -5.69481 0.0149259 0.00435556 -1.53086e-05 2.83024e-05 1.03646 0
13313 1 4.94522 -5.64114 0.0146839 0.00423229 -9.9727e-06 2.58705e-05 1.03667 0
13299 1 5.11752 -5.92858 0.0138376 0.00325384 2.32131e-06 2.3972e-05 1.03699 0
13297 1 5.2778 -5.95031 0.0132141 0.00276397 1.28367e-05 2.13602e-05 1.03669 0
13314 1 5.02 -5.78549 0.0144518 0.00387926 -5.15621e-06 2.6757e-05 1.0369 0
13321 1 5.11542 -5.6238 0.0144814 0.00393714 2.37467e-06 2.37112e-05 1.03656 0
13319 1 5.18997 -5.77323 0.0140997 0.00349428 7.49434e-06 2.36942e-05 1.03665 0
13300 1 5.34525 -5.76908 0.0137002 0.00311678 1.75402e-05 2.21234e-05 1.03636 0
13320 1 5.28229 -5.60221 0.0142405 0.00359764 1.41033e-05 2.24013e-05 1.03628 0
13301 1 5.42923 -5.90351 0.0129033 0.00254818 2.19065e-05 2.04393e-05 1.03633 0
13305 1 5.58705 -5.94085 0.012137 0.00208311 2.88464e-05 1.87802e-05 1.03609 0
13303 1 5.54163 -5.76993 0.0131033 0.00265309 2.74717e-05 2.07411e-05 1.03603 0
13307 1 5.44569 -5.63528 0.0138091 0.00316442 2.30978e-05 2.17499e-05 1.03606 0
13324 1 5.6507 -5.62988 0.0132884 0.00270881 3.07164e-05 2.06936e-05 1.03576 0
12954 1 5.72685 -5.96677 0.0114727 0.00172033 3.29097e-05 1.73148e-05 1.03588 0
13304 1 5.71138 -5.78473 0.0125001 0.00224007 3.26607e-05 1.94462e-05 1.03579 0
13306 1 5.86342 -5.85672 0.0116454 0.00176118 3.50169e-05 1.74542e-05 1.0356 0
13308 1 5.85071 -5.67776 0.0125541 0.00218345 3.38526e-05 1.90488e-05 1.03551 0
13311 1 5.98593 -5.96484 0.0106026 0.00128972 3.58504e-05 1.5058e-05 1.03549 0
13310 1 5.99928 -5.76123 0.0117432 0.00172781 3.45571e-05 1.69672e-05 1.03535 0
12956 1 6.1291 -5.68089 0.0118048 0.00165179 3.24622e-05 1.60642e-05 1.03515 0
12958 1 6.1283 -5.88829 0.010662 0.00125284 3.51035e-05 1.42694e-05 1.03525 0
12946 1 6.41599 -6.06571 0.00867885 0.000569339 3.51229e-05 8.19691e-06 1.03492 0
12957 1 6.25544 -5.7877 0.010924 0.00126321 3.26503e-05 1.34683e-05 1.03504 0
12943 1 6.29181 -5.95443 0.00978721 0.000900491 3.46746e-05 1.13274e-05 1.03506 0
12961 1 6.40418 -5.76684 0.0107 0.00109084 3.05248e-05 1.11806e-05 1.03486 0
12962 1 6.48067 -5.90807 0.00964327 0.000776142 3.25266e-05 8.63774e-06 1.03481 0
12965 1 6.55854 -5.71842 0.0106693 0.000967527 2.77092e-05 8.7194e-06 1.03468 0
12966 1 6.65565 -5.84026 0.00973214 0.000704758 2.96606e-05 6.02262e-06 1.03461 0
12974 1 6.60898 -6.01529 0.00861698 0.000497029 3.36604e-05 5.36739e-06 1.03469 0
12606 1 6.8979 -6.06241 0.00773021 0.000269709 3.31289e-05 -6.39951e-08 1.03438 0
12951 1 6.76662 -5.99529 0.00845598 0.000417733 3.25971e-05 2.68469e-06 1.03452 0
12967 1 6.82816 -5.65163 0.0106173 0.000747545 2.3549e-05 4.05239e-06 1.03442 0
12969 1 6.8143 -5.82722 0.00953995 0.000583958 2.82001e-05 3.1407e-06 1.03445 0