ITEM: TIMESTEP
5000
ITEM: NUMBER OF ATOMS
10175
ITEM: BOX BOUNDS ff ff pp
0.0000000000000000e+00 2.2000000000000000e+01
-1.0000000000000000e+01 1.0000000000000000e+01
-2.0000000000000000e-02 2.0000000000000000e-02
ITEM: ATOMS id type x y vx vy fx fy c_den c_phase
1501 2 2 -10 0 0 0 0 1 5
1535 2 2 -9.8 0 0 0 0 1 5
1569 2 2 -9.6 0 0 0 0 1 5
1502 2 2.2 -10 0 0 0 0 1 5
1503 2 2.4 -10 0 0 0 0 1 5
1536 2 2.2 -9.8 0 0 0 0 1 5
1537 2 2.4 -9.8 0 0 0 0 1 5
1570 2 2.2 -9.6 0 0 0 0 1 5
1571 2 2.4 -9.6 0 0 0 0 1 5
1504 2 2.6 -10 0 0 0 0 1 5
1505 2 2.8 -10 0 0 0 0 1 5
1538 2 2.6 -9.8 0 0 0 0 1 5
1539 2 2.8 -9.8 0 0 0 0 1 5
1572 2 2.6 -9.6 0 0 0 0 1 5
1573 2 2.8 -9.6 0 0 0 0 1 5
1506 2 3 -10 0 0 0 0 1 5
1540 2 3 -9.8 0 0 0 0 1 5
1574 2 3 -9.6 0 0 0 0 1 5
1507 2 3.2 -10 0 0 0 0 1 5
1541 2 3.2 -9.8 0 0 0 0 1 5
1575 2 3.2 -9.6 0 0 0 0 1 5
1508 2 3.4 -10 0 0 0 0 1 5
1542 2 3.4 -9.8 0 0 0 0 1 5
1576 2 3.4 -9.6 0 0 0 0 1 5
1509 2 3.6 -10 0 0 0 0 1 5
1543 2 3.6 -9.8 0 0 0 0 1 5
1577 2 3.6 -9.6 0 0 0 0 1 5
1510 2 3.8 -10 0 0 0 0 1 5
1544 2 3.8 -9.8 0 0 0 0 1 5
1578 2 3.8 -9.6 0 0 0 0 1 5
1511 2 4 -10 0 0 0 0 1 5
1512 2 4.2 -10 0 0 0 0 1 5
1545 2 4 -9.8 0 0 0 0 1 5
1546 2 4.2 -9.8 0 0 0 0 1 5
1579 2 4 -9.6 0 0 0 0 1 5
1580 2 4.2 -9.6 0 0 0 0 1 5
1513 2 4.4 -10 0 0 0 0 1 5
1514 2 4.6 -10 0 0 0 0 1 5
1547 2 4.4 -9.8 0 0 0 0 1 5
1548 2 4.6 -9.8 0 0 0 0 1 5
1581 2 4.4 -9.6 0 0 0 0 1 5
1582 2 4.6 -9.6 0 0 0 0 1 5
1515 2 4.8 -10 0 0 0 0 1 5
1516 2 5 -10 0 0 0 0 1 5
1549 2 4.8 -9.8 0 0 0 0 1 5
1550 2 5 -9.8 0 0 0 0 1 5
1583 2 4.8 -9.6 0 0 0 0 1 5
1584 2 5 -9.6 0 0 0 0 1 5
1517 2 5.2 -10 0 0 0 0 1 5
1518 2 5.4 -10 0 0 0 0 1 5
1551 2 5.2 -9.8 0 0 0 0 1 5
1552 2 5.4 -9.8 0 0 0 0 1 5
1585 2 5.2 -9.6 0 0 0 0 1 5
1586 2 5.4 -9.6 0 0 0 0 1 5
1519 2 5.6 -10 0 0 0 0 1 5
1553 2 5.6 -9.8 0 0 0 0 1 5
1587 2 5.6 -9.6 0 0 0 0 1 5
1520 2 5.8 -10 0 0 0 0 1 5
1554 2 5.8 -9.8 0 0 0 0 1 5
1588 2 5.8 -9.6 0 0 0 0 1 5
1521 2 6 -10 0 0 0 0 1 5
1555 2 6 -9.8 0 0 0 0 1 5
1589 2 6 -9.6 0 0 0 0 1 5
1522 2 6.2 -10 0 0 0 0 1 5
1523 2 6.4 -10 0 0 0 0 1 5
1556 2 6.2 -9.8 0 0 0 0 1 5
1557 2 6.4 -9.8 0 0 0 0 1 5
1590 2 6.2 -9.6 0 0 0 0 1 5
1591 2 6.4 -9.6 0 0 0 0 1 5
1524 2 6.6 -10 0 0 0 0 1 5
1525 2 6.8 -10 0 0 0 0 1 5
1558 2 6.6 -9.8 0 0 0 0 1 5
1559 2 6.8 -9.8 0 0 0 0 1 5
1592 2 6.6 -9.6 0 0 0 0 1 5
1593 2 6.8 -9.6 0 0 0 0 1 5
1526 2 7 -10 0 0 0 0 1 5
1527 2 7.2 -10 0 0 0 0 1 5
1560 2 7 -9.8 0 0 0 0 1 5
1561 2 7.2 -9.8 0 0 0 0 1 5
1594 2 7 -9.6 0 0 0 0 1 5
1595 2 7.2 -9.6 0 0 0 0 1 5
1603 2 2 -9.4 0 0 0 0 1 5
1637 2 2 -9.2 0 0 0 0 1 5
1604 2 2.2 -9.4 0 0 0 0 1 5
1605 2 2.4 -9.4 0 0 0 0 1 5
1638 2 2.2 -9.2 0 0 0 0 1 5
1639 2 2.4 -9.2 0 0 0 0 1 5
1606 2 2.6 -9.4 0 0 0 0 1 5
1607 2 2.8 -9.4 0 0 0 0 1 5
1640 2 2.6 -9.2 0 0 0 0 1 5
1641 2 2.8 -9.2 0 0 0 0 1 5
1608 2 3 -9.4 0 0 0 0 1 5
1642 2 3 -9.2 0 0 0 0 1 5
1609 2 3.2 -9.4 0 0 0 0 1 5
1643 2 3.2 -9.2 0 0 0 0 1 5
1610 2 3.4 -9.4 0 0 0 0 1 5
1644 2 3.4 -9.2 0 0 0 0 1 5
1611 2 3.6 -9.4 0 0 0 0 1 5
1645 2 3.6 -9.2 0 0 0 0 1 5
1612 2 3.8 -9.4 0 0 0 0 1 5
1646 2 3.8 -9.2 0 0 0 0 1 5
1613 2 4 -9.4 0 0 0 0 1 5
1614 2 4.2 -9.4 0 0 0 0 1 5
1647 2 4 -9.2 0 0 0 0 1 5
1648 2 4.2 -9.2 0 0 0 0 1 5
1615 2 4.4 -9.4 0 0 0 0 1 5
1616 2 4.6 -9.4 0 0 0 0 1 5
1649 2 4.4 -9.2 0 0 0 0 1 5
1650 2 4.6 -9.2 0 0 0 0 1 5
1617 2 4.8 -9.4 0 0 0 0 1 5
1618 2 5 -9.4 0 0 0 0 1 5
1651 2 4.8 -9.2 0 0 0 0 1 5
1652 2 5 -9.2 0 0 0 0 1 5
1619 2 5.2 -9.4 0 0 0 0 1 5
1620 2 5.4 -9.4 0 0 0 0 1 5
1653 2 5.2 -9.2 0 0 0 0 1 5
1654 2 5.4 -9.2 0 0 0 0 1 5
1621 2 5.6 -9.4 0 0 0 0 1 5
1655 2 5.6 -9.2 0 0 0 0 1 5
1622 2 5.8 -9.4 0 0 0 0 1 5
1656 2 5.8 -9.2 0 0 0 0 1 5
1623 2 6 -9.4 0 0 0 0 1 5
1657 2 6 -9.2 0 0 0 0 1 5
1624 2 6.2 -9.4 0 0 0 0 1 5
1625 2 6.4 -9.4 0 0 0 0 1 5
1658 2 6.2 -9.2 0 0 0 0 1 5
1659 2 6.4 -9.2 0 0 0 0 1 5
1626 2 6.6 -9.4 0 0 0 0 1 5
1627 2 6.8 -9.4 0 0 0 0 1 5
1660 2 6.6 -9.2 0 0 0 0 1 5
1661 2 6.8 -9.2 0 0 0 0 1 5
1628 2 7 -9.4 0 0 0 0 1 5
1629 2 7.2 -9.4 0 0 0 0 1 5
1662 2 7 -9.2 0 0 0 0 1 5
1663 2 7.2 -9.2 0 0 0 0 1 5
1671 2 2 -9 0 0 0 0 1 5
1705 2 2 -8.8 0 0 0 0 1 5
1672 2 2.2 -9 0 0 0 0 1 5
1673 2 2.4 -9 0 0 0 0 1 5
1706 2 2.2 -8.8 0 0 0 0 1 5
1707 2 2.4 -8.8 0 0 0 0 1 5
1674 2 2.6 -9 0 0 0 0 1 5
1675 2 2.8 -9 0 0 0 0 1 5
1708 2 2.6 -8.8 0 0 0 0 1 5
1709 2 2.8 -8.8 0 0 0 0 1 5
1676 2 3 -9 0 0 0 0 1 5
1710 2 3 -8.8 0 0 0 0 1 5
1677 2 3.2 -9 0 0 0 0 1 5
1711 2 3.2 -8.8 0 0 0 0 1 5
1678 2 3.4 -9 0 0 0 0 1 5
1712 2 3.4 -8.8 0 0 0 0 1 5
1679 2 3.6 -9 0 0 0 0 1 5
1713 2 3.6 -8.8 0 0 0 0 1 5
1680 2 3.8 -9 0 0 0 0 1 5
1714 2 3.8 -8.8 0 0 0 0 1 5
1681 2 4 -9 0 0 0 0 1 5
1682 2 4.2 -9 0 0 0 0 1 5
1715 2 4 -8.8 0 0 0 0 1 5
1716 2 4.2 -8.8 0 0 0 0 1 5
1683 2 4.4 -9 0 0 0 0 1 5
1684 2 4.6 -9 0 0 0 0 1 5
1717 2 4.4 -8.8 0 0 0 0 1 5
1718 2 4.6 -8.8 0 0 0 0 1 5
1685 2 4.8 -9 0 0 0 0 1 5
1686 2 5 -9 0 0 0 0 1 5
1719 2 4.8 -8.8 0 0 0 0 1 5
1720 2 5 -8.8 0 0 0 0 1 5
1687 2 5.2 -9 0 0 0 0 1 5
1688 2 5.4 -9 0 0 0 0 1 5
1721 2 5.2 -8.8 0 0 0 0 1 5
1722 2 5.4 -8.8 0 0 0 0 1 5
1689 2 5.6 -9 0 0 0 0 1 5
1723 2 5.6 -8.8 0 0 0 0 1 5
1690 2 5.8 -9 0 0 0 0 1 5
1724 2 5.8 -8.8 0 0 0 0 1 5
1691 2 6 -9 0 0 0 0 1 5
1725 2 6 -8.8 0 0 0 0 1 5
1692 2 6.2 -9 0 0 0 0 1 5
1693 2 6.4 -9 0 0 0 0 1 5
1726 2 6.2 -8.8 0 0 0 0 1 5
1727 2 6.4 -8.8 0 0 0 0 1 5
1694 2 6.6 -9 0 0 0 0 1 5
1695 2 6.8 -9 0 0 0 0 1 5
1728 2 6.6 -8.8 0 0 0 0 1 5
1729 2 6.8 -8.8 0 0 0 0 1 5
1696 2 7 -9 0 0 0 0 1 5
1697 2 7.2 -9 0 0 0 0 1 5
1730 2 7 -8.8 0 0 0 0 1 5
1731 2 7.2 -8.8 0 0 0 0 1 5
1739 2 2 -8.6 0 0 0 0 1 5
1773 2 2 -8.4 0 0 0 0 1 5
1740 2 2.2 -8.6 0 0 0 0 1 5
1741 2 2.4 -8.6 0 0 0 0 1 5
1774 2 2.2 -8.4 0 0 0 0 1 5
1775 2 2.4 -8.4 0 0 0 0 1 5
1742 2 2.6 -8.6 0 0 0 0 1 5
1743 2 2.8 -8.6 0 0 0 0 1 5
1776 2 2.6 -8.4 0 0 0 0 1 5
1777 2 2.8 -8.4 0 0 0 0 1 5
1744 2 3 -8.6 0 0 0 0 1 5
1778 2 3 -8.4 0 0 0 0 1 5
1745 2 3.2 -8.6 0 0 0 0 1 5
1779 2 3.2 -8.4 0 0 0 0 1 5
1746 2 3.4 -8.6 0 0 0 0 1 5
1780 2 3.4 -8.4 0 0 0 0 1 5
1747 2 3.6 -8.6 0 0 0 0 1 5
1781 2 3.6 -8.4 0 0 0 0 1 5
1748 2 3.8 -8.6 0 0 0 0 1 5
1782 2 3.8 -8.4 0 0 0 0 1 5
1749 2 4 -8.6 0 0 0 0 1 5
1750 2 4.2 -8.6 0 0 0 0 1 5
1783 2 4 -8.4 0 0 0 0 1 5
1784 2 4.2 -8.4 0 0 0 0 1 5
1751 2 4.4 -8.6 0 0 0 0 1 5
1752 2 4.6 -8.6 0 0 0 0 1 5
1785 2 4.4 -8.4 0 0 0 0 1 5
1786 2 4.6 -8.4 0 0 0 0 1 5
1753 2 4.8 -8.6 0 0 0 0 1 5
1754 2 5 -8.6 0 0 0 0 1 5
1787 2 4.8 -8.4 0 0 0 0 1 5
1788 2 5 -8.4 0 0 0 0 1 5
1755 2 5.2 -8.6 0 0 0 0 1 5
1756 2 5.4 -8.6 0 0 0 0 1 5
1789 2 5.2 -8.4 0 0 0 0 1 5
1790 2 5.4 -8.4 0 0 0 0 1 5
1757 2 5.6 -8.6 0 0 0 0 1 5
1791 2 5.6 -8.4 0 0 0 0 1 5
1758 2 5.8 -8.6 0 0 0 0 1 5
1792 2 5.8 -8.4 0 0 0 0 1 5
1759 2 6 -8.6 0 0 0 0 1 5
1793 2 6 -8.4 0 0 0 0 1 5
1760 2 6.2 -8.6 0 0 0 0 1 5
1761 2 6.4 -8.6 0 0 0 0 1 5
1794 2 6.2 -8.4 0 0 0 0 1 5
1795 2 6.4 -8.4 0 0 0 0 1 5
1762 2 6.6 -8.6 0 0 0 0 1 5
1763 2 6.8 -8.6 0 0 0 0 1 5
1796 2 6.6 -8.4 0 0 0 0 1 5
1797 2 6.8 -8.4 0 0 0 0 1 5
1764 2 7 -8.6 0 0 0 0 1 5
1765 2 7.2 -8.6 0 0 0 0 1 5
1798 2 7 -8.4 0 0 0 0 1 5
1799 2 7.2 -8.4 0 0 0 0 1 5
1807 2 2 -8.2 0 0 0 0 1 5
1841 2 2 -8 0 0 0 0 1 5
1808 2 2.2 -8.2 0 0 0 0 1 5
1809 2 2.4 -8.2 0 0 0 0 1 5
1842 2 2.2 -8 0 0 0 0 1 5
1843 2 2.4 -8 0 0 0 0 1 5
1810 2 2.6 -8.2 0 0 0 0 1 5
1811 2 2.8 -8.2 0 0 0 0 1 5
1844 2 2.6 -8 0 0 0 0 1 5
1845 2 2.8 -8 0 0 0 0 1 5
1812 2 3 -8.2 0 0 0 0 1 5
1846 2 3 -8 0 0 0 0 1 5
1813 2 3.2 -8.2 0 0 0 0 1 5
1847 2 3.2 -8 0 0 0 0 1 5
1814 2 3.4 -8.2 0 0 0 0 1 5
1848 2 3.4 -8 0 0 0 0 1 5
1815 2 3.6 -8.2 0 0 0 0 1 5
1849 2 3.6 -8 0 0 0 0 1 5
1816 2 3.8 -8.2 0 0 0 0 1 5
1850 2 3.8 -8 0 0 0 0 1 5
1817 2 4 -8.2 0 0 0 0 1 5
1818 2 4.2 -8.2 0 0 0 0 1 5
1851 2 4 -8 0 0 0 0 1 5
1852 2 4.2 -8 0 0 0 0 1 5
1819 2 4.4 -8.2 0 0 0 0 1 5
1820 2 4.6 -8.2 0 0 0 0 1 5
1853 2 4.4 -8 0 0 0 0 1 5
1854 2 4.6 -8 0 0 0 0 1 5
1821 2 4.8 -8.2 0 0 0 0 1 5
1822 2 5 -8.2 0 0 0 0 1 5
1855 2 4.8 -8 0 0 0 0 1 5
1856 2 5 -8 0 0 0 0 1 5
1823 2 5.2 -8.2 0 0 0 0 1 5
1824 2 5.4 -8.2 0 0 0 0 1 5
1857 2 5.2 -8 0 0 0 0 1 5
1858 2 5.4 -8 0 0 0 0 1 5
1825 2 5.6 -8.2 0 0 0 0 1 5
1859 2 5.6 -8 0 0 0 0 1 5
1826 2 5.8 -8.2 0 0 0 0 1 5
1860 2 5.8 -8 0 0 0 0 1 5
1827 2 6 -8.2 0 0 0 0 1 5
1861 2 6 -8 0 0 0 0 1 5
1828 2 6.2 -8.2 0 0 0 0 1 5
1829 2 6.4 -8.2 0 0 0 0 1 5
1862 2 6.2 -8 0 0 0 0 1 5
1863 2 6.4 -8 0 0 0 0 1 5
1830 2 6.6 -8.2 0 0 0 0 1 5
1831 2 6.8 -8.2 0 0 0 0 1 5
1864 2 6.6 -8 0 0 0 0 1 5
1865 2 6.8 -8 0 0 0 0 1 5
1832 2 7 -8.2 0 0 0 0 1 5
1833 2 7.2 -8.2 0 0 0 0 1 5
1866 2 7 -8 0 0 0 0 1 5
1867 2 7.2 -8 0 0 0 0 1 5
1875 2 2 -7.8 0 0 0 0 1 5
1909 2 2 -7.6 0 0 0 0 1 5
1943 2 2 -7.4 0 0 0 0 1.00349 5
1876 2 2.2 -7.8 0 0 0 0 1 5
1877 2 2.4 -7.8 0 0 0 0 1 5
1910 2 2.2 -7.6 0 0 0 0 1 5
1911 2 2.4 -7.6 0 0 0 0 1 5
1944 2 2.2 -7.4 0 0 0 0 1.00119 5
1945 2 2.4 -7.4 0 0 0 0 0.996656 5
1878 2 2.6 -7.8 0 0 0 0 1 5
1879 2 2.8 -7.8 0 0 0 0 1 5
1912 2 2.6 -7.6 0 0 0 0 1 5
1913 2 2.8 -7.6 0 0 0 0 1 5
1946 2 2.6 -7.4 0 0 0 0 1.00157 5
1947 2 2.8 -7.4 0 0 0 0 1.00061 5
1880 2 3 -7.8 0 0 0 0 1 5
1914 2 3 -7.6 0 0 0 0 1 5
1948 2 3 -7.4 0 0 0 0 1.00144 5
1881 2 3.2 -7.8 0 0 0 0 1 5
1915 2 3.2 -7.6 0 0 0 0 1 5
1949 2 3.2 -7.4 0 0 0 0 0.995539 5
1882 2 3.4 -7.8 0 0 0 0 1 5
1916 2 3.4 -7.6 0 0 0 0 1 5
1950 2 3.4 -7.4 0 0 0 0 1.00143 5
1883 2 3.6 -7.8 0 0 0 0 1 5
1917 2 3.6 -7.6 0 0 0 0 1 5
1951 2 3.6 -7.4 0 0 0 0 1.00109 5
1884 2 3.8 -7.8 0 0 0 0 1 5
1918 2 3.8 -7.6 0 0 0 0 1 5
1952 2 3.8 -7.4 0 0 0 0 1.00067 5
1885 2 4 -7.8 0 0 0 0 1 5
1886 2 4.2 -7.8 0 0 0 0 1 5
1919 2 4 -7.6 0 0 0 0 1 5
1920 2 4.2 -7.6 0 0 0 0 1 5
1953 2 4 -7.4 0 0 0 0 1.00146 5
1954 2 4.2 -7.4 0 0 0 0 1.0166 5
1887 2 4.4 -7.8 0 0 0 0 1 5
1888 2 4.6 -7.8 0 0 0 0 1 5
1921 2 4.4 -7.6 0 0 0 0 1 5
1922 2 4.6 -7.6 0 0 0 0 1 5
1955 2 4.4 -7.4 0 0 0 0 1.01504 5
1956 2 4.6 -7.4 0 0 0 0 1.01272 5
1889 2 4.8 -7.8 0 0 0 0 1 5
1890 2 5 -7.8 0 0 0 0 1 5
1923 2 4.8 -7.6 0 0 0 0 1 5
1924 2 5 -7.6 0 0 0 0 1 5
1957 2 4.8 -7.4 0 0 0 0 1.01169 5
1958 2 5 -7.4 0 0 0 0 1.01116 5
1891 2 5.2 -7.8 0 0 0 0 1 5
1892 2 5.4 -7.8 0 0 0 0 1 5
1925 2 5.2 -7.6 0 0 0 0 1 5
1926 2 5.4 -7.6 0 0 0 0 1 5
1959 2 5.2 -7.4 0 0 0 0 1.01103 5
1960 2 5.4 -7.4 0 0 0 0 1.01101 5
1893 2 5.6 -7.8 0 0 0 0 1 5
1927 2 5.6 -7.6 0 0 0 0 1 5
1961 2 5.6 -7.4 0 0 0 0 1.01099 5
1894 2 5.8 -7.8 0 0 0 0 1 5
1928 2 5.8 -7.6 0 0 0 0 1 5
1962 2 5.8 -7.4 0 0 0 0 1.01075 5
1895 2 6 -7.8 0 0 0 0 1 5
1929 2 6 -7.6 0 0 0 0 1 5
1963 2 6 -7.4 0 0 0 0 1.01082 5
1896 2 6.2 -7.8 0 0 0 0 1 5
1897 2 6.4 -7.8 0 0 0 0 1 5
1930 2 6.2 -7.6 0 0 0 0 1 5
1931 2 6.4 -7.6 0 0 0 0 1 5
1964 2 6.2 -7.4 0 0 0 0 1.0108 5
1965 2 6.4 -7.4 0 0 0 0 1.01078 5
1898 2 6.6 -7.8 0 0 0 0 1 5
1899 2 6.8 -7.8 0 0 0 0 1 5
1932 2 6.6 -7.6 0 0 0 0 1 5
1933 2 6.8 -7.6 0 0 0 0 1 5
1966 2 6.6 -7.4 0 0 0 0 1.01071 5
1967 2 6.8 -7.4 0 0 0 0 1.01071 5
1900 2 7 -7.8 0 0 0 0 1 5
1901 2 7.2 -7.8 0 0 0 0 1 5
1934 2 7 -7.6 0 0 0 0 1 5
1935 2 7.2 -7.6 0 0 0 0 1 5
1968 2 7 -7.4 0 0 0 0 1.01067 5
1969 2 7.2 -7.4 0 0 0 0 1.01056 5
1977 2 2 -7.2 0 0 0 0 1.0056 5
2011 2 2 -7 0 0 0 0 1.00528 5
1978 2 2.2 -7.2 0 0 0 0 1.00059 5
1979 2 2.4 -7.2 0 0 0 0 0.998835 5
2012 2 2.2 -7 0 0 0 0 1.00064 5
2013 2 2.4 -7 0 0 0 0 0.999591 5
1980 2 2.6 -7.2 0 0 0 0 1.00017 5
1981 2 2.8 -7.2 0 0 0 0 1.00042 5
2014 2 2.6 -7 0 0 0 0 1.00015 5
2015 2 2.8 -7 0 0 0 0 1.00018 5
1982 2 3 -7.2 0 0 0 0 0.999776 5
2016 2 3 -7 0 0 0 0 0.99974 5
1983 2 3.2 -7.2 0 0 0 0 0.99852 5
2017 2 3.2 -7 0 0 0 0 0.999295 5
1984 2 3.4 -7.2 0 0 0 0 1.00107 5
2018 2 3.4 -7 0 0 0 0 1.00058 5
1985 2 3.6 -7.2 0 0 0 0 1.0006 5
2019 2 3.6 -7 0 0 0 0 1.00076 5
1986 2 3.8 -7.2 0 0 0 0 1.00102 5
2020 2 3.8 -7 0 0 0 0 1.00183 5
1987 2 4 -7.2 0 0 0 0 1.00445 5
1988 2 4.2 -7.2 0 0 0 0 1.01309 5
2021 2 4 -7 0 0 0 0 1.00654 5
2022 2 4.2 -7 0 0 0 0 1.0139 5
1989 2 4.4 -7.2 0 0 0 0 1.01602 5
1990 2 4.6 -7.2 0 0 0 0 1.0134 5
2023 2 4.4 -7 0 0 0 0 1.01653 5
2024 2 4.6 -7 0 0 0 0 1.01397 5
1991 2 4.8 -7.2 0 0 0 0 1.012 5
1992 2 5 -7.2 0 0 0 0 1.01148 5
2025 2 4.8 -7 0 0 0 0 1.01231 5
2026 2 5 -7 0 0 0 0 1.01179 5
1993 2 5.2 -7.2 0 0 0 0 1.01134 5
1994 2 5.4 -7.2 0 0 0 0 1.01129 5
2027 2 5.2 -7 0 0 0 0 1.01163 5
2028 2 5.4 -7 0 0 0 0 1.01153 5
1995 2 5.6 -7.2 0 0 0 0 1.01119 5
2029 2 5.6 -7 0 0 0 0 1.01139 5
1996 2 5.8 -7.2 0 0 0 0 1.01097 5
2030 2 5.8 -7 0 0 0 0 1.01118 5
1997 2 6 -7.2 0 0 0 0 1.01097 5
2031 2 6 -7 0 0 0 0 1.01113 5
1998 2 6.2 -7.2 0 0 0 0 1.01094 5
1999 2 6.4 -7.2 0 0 0 0 1.0109 5
2032 2 6.2 -7 0 0 0 0 1.01109 5
2033 2 6.4 -7 0 0 0 0 1.01104 5
2000 2 6.6 -7.2 0 0 0 0 1.01084 5
2001 2 6.8 -7.2 0 0 0 0 1.01081 5
2034 2 6.6 -7 0 0 0 0 1.01097 5
2035 2 6.8 -7 0 0 0 0 1.01092 5
2002 2 7 -7.2 0 0 0 0 1.01076 5
2003 2 7.2 -7.2 0 0 0 0 1.01067 5
2036 2 7 -7 0 0 0 0 1.01085 5
2037 2 7.2 -7 0 0 0 0 1.01076 5
10173 1 2.01371 -6.73915 0.02 0 -0.00415593 -0.000741763 1 2
10175 1 2.04751 -6.55076 0.02 0 0.000291876 0.000216058 1 2
10174 1 2.21892 -6.76661 0.02 0 -0.00268889 -0.000406291 1 2
10176 1 2.23519 -6.57535 0.02 0 0.00041644 0.000601695 1 2
10177 1 2.43461 -6.74572 0.02 0 -0.00239525 -0.000364336 1 2
10179 1 2.42812 -6.56407 0.02 0 0.000171073 0.000322731 1 2
10178 1 2.63309 -6.75043 0.02 0 -0.00287923 -0.000399349 1 2
10180 1 2.63566 -6.56481 0.02 0 0.000131679 0.000357208 1 2
10181 1 2.82654 -6.74604 0.02 0 -0.00271565 -0.000507804 1 2
10183 1 2.84728 -6.56288 0.02 0 0.000136872 0.000476201 1 2
10182 1 3.02585 -6.75916 0.02 0 -0.00311774 -0.000487846 1 2
10184 1 3.04774 -6.56544 0.02 0 0.00010798 0.00045116 1 2
10185 1 3.22203 -6.73676 0.02 0 -0.00240702 -0.000459144 1 2
10187 1 3.24608 -6.55608 0.02 0 0.000129923 0.000476247 1 2
10186 1 3.42387 -6.74294 0.02 0 -0.00274581 -0.000452217 1 2
10188 1 3.43569 -6.55023 0.02 0 0.000173098 0.000400736 1 2
10189 1 3.61944 -6.75335 0.02 0 -0.00308926 -0.000362214 1 2
10191 1 3.62714 -6.55919 0.02 0 -2.78099e-05 0.000424259 1 2
10190 1 3.8148 -6.74187 0.02 0 -0.00430412 -0.00051229 1 2
3101 1 3.99999 -6.75946 0.02 0 -0.00808384 -0.000893572 1.00619 2
3135 1 4.00005 -6.54901 0.0192028 0.000236193 -0.0031888 0.000944774 1.01018 0
10192 1 3.83054 -6.56681 0.02 0 -0.00140738 0.000437398 1 2
3102 1 4.10552 -6.69186 0.0122957 0.00189928 0.000720721 0.000428966 1.01777 0
3136 1 4.15875 -6.5238 0.01485 0.00298287 0.000193519 0.000168891 1.01932 0
3103 1 4.23392 -6.7509 0.00843055 0.000165707 0.000368091 6.8856e-05 1.02176 0
3137 1 4.29898 -6.45146 0.0150026 0.00374117 2.97583e-05 4.67751e-05 1.01797 0
3104 1 4.36317 -6.61463 0.0120603 0.00213725 6.68717e-05 3.9758e-05 1.01746 0
3138 1 4.47003 -6.45733 0.014635 0.00337278 1.74989e-06 2.70844e-05 1.0149 0
3105 1 4.42934 -6.77621 0.0068859 0.000239539 5.47874e-05 2.36732e-05 1.01743 0
3106 1 4.56138 -6.63154 0.0104749 0.00171012 3.20531e-06 2.0927e-05 1.0136 0
3107 1 4.73152 -6.58591 0.0104116 0.00165159 -3.87341e-06 1.54732e-05 1.01267 0
3108 1 4.89946 -6.52024 0.0105936 0.00168421 -5.33243e-06 1.01932e-05 1.01267 0
3109 1 4.69764 -6.77598 0.00550345 0.000479703 -2.79072e-07 6.64215e-06 1.01312 0
3111 1 4.88818 -6.69957 0.0063387 0.000697967 -8.09382e-07 5.89514e-06 1.01229 0
3112 1 5.20322 -6.54769 0.0083035 0.000891919 -8.49467e-08 4.05549e-06 1.01213 0
3113 1 5.04424 -6.7461 0.00443935 0.000227902 1.90551e-07 2.50978e-06 1.01243 0
3114 1 5.22659 -6.7038 0.00474896 0.000260713 1.09076e-06 1.94657e-06 1.01187 0
3115 1 5.43145 -6.59768 0.00640856 0.00049673 1.52215e-06 2.79883e-06 1.01167 0
3116 1 5.39545 -6.77523 0.00309768 1.40521e-05 8.72807e-07 9.41255e-07 1.01195 0
3150 1 5.70204 -6.55179 0.00649929 0.000479818 4.12297e-07 3.38661e-06 1.01141 0
3117 1 5.58793 -6.71948 0.00373929 8.77864e-05 4.67832e-07 1.67842e-06 1.01167 0
3118 1 5.76945 -6.71417 0.00353032 4.67441e-05 -1.93684e-07 1.89656e-06 1.01147 0
3119 1 5.93778 -6.72498 0.00314298 1.43732e-05 -8.15312e-07 1.85396e-06 1.01144 0
3120 1 6.10831 -6.69861 0.00337474 2.4658e-05 -1.24802e-06 2.01089e-06 1.0113 0
3154 1 6.38489 -6.52507 0.00563808 0.000233707 -1.20676e-06 2.61874e-06 1.01108 0
3121 1 6.27642 -6.72904 0.00279019 -2.81693e-05 -1.00151e-06 1.4898e-06 1.0113 0
3122 1 6.4603 -6.71273 0.00288003 -2.72519e-05 -6.64974e-07 1.25654e-06 1.01119 0
3156 1 6.73367 -6.53534 0.00512306 0.000136298 3.96935e-07 1.2715e-06 1.01093 0
3123 1 6.64119 -6.73023 0.00254201 -5.23797e-05 -9.32327e-08 7.62275e-07 1.01113 0
3157 1 6.91338 -6.54241 0.00488224 9.34185e-05 1.23982e-06 6.0451e-07 1.01086 0
3124 1 6.83385 -6.73624 0.0023823 -6.04494e-05 4.94661e-07 3.31361e-07 1.01107 0
3125 1 7.03244 -6.73099 0.00236693 -6.21572e-05 1.09705e-06 -2.0528e-08 1.01098 0
3158 1 7.10144 -6.54219 0.00476293 6.07338e-05 2.03941e-06 1.83144e-08 1.01078 0
3159 1 7.29654 -6.53127 0.00479811 4.18433e-05 2.76357e-06 -4.6569e-07 1.0107 0
3126 1 7.22742 -6.71789 0.00246093 -6.50662e-05 1.64324e-06 -3.01187e-07 1.01085 0
10193 1 2.0674 -6.35963 0.02 0 9.90601e-05 7.03891e-05 1 2
10194 1 2.0987 -6.17071 0.02 0 7.57937e-06 8.12023e-06 1 2
10195 1 2.26276 -6.37801 0.02 0 0.000144092 0.000180353 1 2
10196 1 2.29165 -6.17475 0.02 0 7.18085e-06 1.44203e-05 1 2
10197 1 2.45762 -6.37882 0.02 0 9.81538e-05 0.000145788 1 2
10199 1 2.48304 -6.18522 0.02 0 6.18836e-06 1.50094e-05 1 2
10198 1 2.65026 -6.37692 0.02 0 9.11248e-05 0.000135964 1 2
10200 1 2.67755 -6.18093 0.02 0 4.89376e-06 1.19057e-05 1 2
10201 1 2.83793 -6.37185 0.02 0 8.82507e-05 0.000121415 1 2
10203 1 2.87065 -6.16748 0.02 0 3.59904e-06 8.3032e-06 1 2
10202 1 3.02567 -6.37314 0.02 0 9.59418e-05 0.000125117 1 2
10204 1 3.06488 -6.181 0.02 0 5.00644e-06 1.06217e-05 1 2
10205 1 3.21943 -6.36836 0.02 0 8.82979e-05 0.000114523 1 2
10207 1 3.26005 -6.17118 0.02 0 4.18288e-06 9.18537e-06 1 2
10206 1 3.415 -6.35117 0.02 0 7.55376e-05 0.000107336 1 2
10208 1 3.45311 -6.15293 0.02 0 -3.84251e-06 7.233e-06 1 2
10209 1 3.60991 -6.36594 0.02 0 -0.000102117 0.000104211 1 2
10211 1 3.64279 -6.16931 0.02 0 -0.000389956 6.71606e-06 1 2
10210 1 3.81282 -6.38958 0.02 0 -0.00135742 4.81828e-05 1 2
3203 1 4.00523 -6.16738 0.0151647 0.00149593 -8.83291e-06 3.09388e-05 1.01167 0
3169 1 3.99989 -6.36019 0.02 0 -0.00213921 0.000598393 1.00989 2
10212 1 3.83301 -6.20457 0.02 0 -0.00217071 -3.40213e-05 1 2
3170 1 4.16234 -6.31883 0.015096 0.00357617 -9.04492e-05 8.53877e-06 1.01718 0
3204 1 4.17259 -6.13369 0.0145332 0.00354379 3.44527e-05 1.63214e-05 1.01539 0
3171 1 4.3376 -6.27248 0.0157761 0.00448246 6.67675e-06 1.55399e-05 1.01565 0
3205 1 4.34687 -6.08968 0.016016 0.00458491 3.13311e-05 1.62877e-05 1.01404 0
3172 1 4.50898 -6.25315 0.0160196 0.00436482 -3.24955e-06 2.42151e-05 1.01367 0
3206 1 4.52433 -6.06021 0.0165098 0.00472223 -1.66914e-06 1.32423e-05 1.01289 0
3139 1 4.62705 -6.41966 0.0141968 0.00316208 -7.52597e-06 2.30048e-05 1.0134 0
3140 1 4.78454 -6.36955 0.0137398 0.00294199 -1.13214e-05 1.54021e-05 1.01301 0
3173 1 4.67623 -6.20438 0.0157161 0.00412741 -1.41643e-05 1.53743e-05 1.01299 0
3207 1 4.69823 -5.99944 0.0164496 0.00461601 -1.02173e-05 5.23592e-06 1.01267 0
3174 1 4.83766 -6.13755 0.0154385 0.00390938 -1.3593e-05 8.31029e-06 1.01285 0
3141 1 4.9399 -6.30141 0.0135594 0.00282099 -9.6933e-06 9.2174e-06 1.01288 0
3175 1 5.00824 -6.09632 0.0150268 0.00356077 -7.9466e-06 5.5173e-06 1.01268 0
3110 1 5.05813 -6.48621 0.0102459 0.00151058 -3.34316e-06 6.35241e-06 1.01256 0
3142 1 5.10669 -6.28679 0.012837 0.00239294 -4.35376e-06 6.16702e-06 1.01264 0
3143 1 5.26266 -6.2042 0.0130131 0.00238064 -1.0024e-06 5.59725e-06 1.01231 0
3176 1 5.17007 -6.04129 0.0148166 0.00330471 -2.32192e-06 4.71505e-06 1.01238 0
3145 1 5.28397 -6.38266 0.0107029 0.00150455 -1.90063e-07 5.01825e-06 1.01223 0
3144 1 5.4255 -6.14063 0.0129855 0.00225336 6.92176e-07 5.8685e-06 1.01203 0
3146 1 5.5498 -6.24694 0.0113395 0.00158874 7.57068e-07 5.6849e-06 1.01185 0
3147 1 5.4404 -6.42536 0.00939728 0.00108506 1.11775e-06 4.50083e-06 1.01189 0
3148 1 5.61299 -6.41952 0.00885305 0.000907749 7.92594e-07 4.56821e-06 1.01169 0
3181 1 5.726 -6.21436 0.0110962 0.0014177 -1.07622e-07 5.80118e-06 1.01169 0
3149 1 5.82622 -6.35602 0.00905192 0.000880529 -5.83066e-07 4.9239e-06 1.01154 0
3182 1 5.91802 -6.12088 0.0115144 0.00142192 -1.59534e-06 5.77736e-06 1.01154 0
3152 1 6.0651 -6.48735 0.00668286 0.000413503 -1.48273e-06 3.69842e-06 1.01125 0
3151 1 5.89542 -6.52701 0.00644436 0.000431768 -7.53104e-07 3.6077e-06 1.01132 0
3183 1 6.08377 -6.05568 0.0117317 0.00136296 -2.62993e-06 5.38748e-06 1.01142 0
3184 1 6.00047 -6.29392 0.00936543 0.000868193 -1.6478e-06 4.93929e-06 1.01144 0
3185 1 6.16631 -6.25606 0.00942225 0.000797361 -2.18615e-06 4.57281e-06 1.01136 0
3153 1 6.22732 -6.49202 0.00632639 0.000339055 -1.60833e-06 3.3087e-06 1.01117 0
3155 1 6.56179 -6.51308 0.00559131 0.000197272 -5.62408e-07 2.03971e-06 1.01101 0
3186 1 6.32793 -6.24681 0.00919498 0.000676246 -2.10207e-06 3.8909e-06 1.01127 0
3220 1 6.52574 -6.11103 0.0102816 0.000744746 -1.98204e-06 3.12982e-06 1.01119 0
3187 1 6.46838 -6.32469 0.00805403 0.000455572 -1.3821e-06 3.0474e-06 1.01117 0
3221 1 6.69323 -6.06308 0.0105062 0.000670379 -1.29845e-06 2.22354e-06 1.01111 0
3188 1 6.63705 -6.28562 0.00825686 0.000414595 -6.53042e-07 2.24022e-06 1.01111 0
3222 1 6.85871 -6.10231 0.00991174 0.000492932 4.56042e-08 1.23022e-06 1.01104 0
3223 1 7.02487 -6.10109 0.00974397 0.000380662 1.08034e-06 3.74952e-07 1.01097 0
3189 1 6.79629 -6.32397 0.00762525 0.000296806 3.78415e-07 1.38713e-06 1.01102 0
3190 1 6.96347 -6.32885 0.00739664 0.000223776 1.37027e-06 5.94084e-07 1.01093 0
3224 1 7.18758 -6.14448 0.009164 0.000253254 2.18731e-06 -3.62439e-07 1.01088 0
3191 1 7.1379 -6.34493 0.00707128 0.000152173 2.31437e-06 -1.18579e-07 1.01085 0
4260 1 4.31768 -0.0297653 0.0163484 -4.32125e-05 -7.52874e-05 -1.89374e-05 1.0121 0
3192 1 7.32708 -6.33714 0.0070348 0.00010355 3.14693e-06 -7.39285e-07 1.01077 0
10213 1 2.0898 -5.9796 0.02 0 5.67122e-08 7.29916e-08 1 2
10214 1 2.07906 -5.78431 0.02 0 7.47876e-12 1.14784e-11 1 2
10215 1 2.28972 -5.97299 0.02 0 1.63932e-08 5.07045e-08 1 2
10216 1 2.27604 -5.77559 0.02 0 7.80784e-12 2.57792e-11 1 2
10217 1 2.48614 -5.98699 0.02 0 1.84277e-08 8.68819e-08 1 2
10218 1 2.47113 -5.78504 0.02 0 1.00444e-11 4.20461e-11 1 2
10219 1 2.6659 -5.78886 0.02 0 1.24386e-11 5.30919e-11 1 2
10220 1 2.68244 -5.9853 0.02 0 1.71475e-08 7.6079e-08 1 2
10221 1 2.87354 -5.96034 0.02 0 6.01631e-09 2.27742e-08 1 2
10223 1 2.86109 -5.75899 0.02 0 1.28201e-12 8.76541e-12 1 2
10222 1 3.06435 -5.98631 0.02 0 1.89891e-08 6.41739e-08 1 2
10224 1 3.05968 -5.78722 0.02 0 1.0725e-11 5.65632e-11 1 2
10225 1 3.25822 -5.97154 0.02 0 9.32366e-09 3.22088e-08 1 2
10227 1 3.25888 -5.77485 0.02 0 4.04326e-12 2.56445e-11 1 2
10226 1 3.45282 -5.95431 0.02 0 -5.85114e-06 4.75793e-07 1 2
10228 1 3.45855 -5.75702 0.02 0 -3.70199e-06 4.91481e-07 1 2
10229 1 3.64644 -5.96396 0.02 0 -0.000429463 3.41196e-05 1 2
10231 1 3.66023 -5.76803 0.02 0 -0.000411057 5.66313e-05 1 2
3271 1 4.03142 -5.78266 0.0154716 0.00172092 1.46999e-05 3.04999e-05 1.01337 0
3237 1 4.00799 -5.97374 0.0151459 0.00157717 1.8262e-05 2.82941e-05 1.01231 0
10230 1 3.83367 -6.00481 0.02 0 -0.00243224 0.000244587 1 2
10232 1 3.85994 -5.79967 0.02 0 -0.00248717 0.000460948 1 2
3238 1 4.1777 -5.94836 0.0148418 0.00327465 5.51867e-05 2.87982e-05 1.01456 0
3239 1 4.35831 -5.90642 0.0163373 0.00433035 2.81183e-05 8.9827e-06 1.01316 0
3272 1 4.21208 -5.76065 0.0155436 0.00314846 3.41796e-05 2.25907e-05 1.01414 0
3273 1 4.39475 -5.7155 0.0167713 0.00407615 1.72244e-05 5.04079e-06 1.01262 0
3240 1 4.54031 -5.86947 0.0168175 0.00468517 5.61189e-06 2.56498e-06 1.01245 0
3274 1 4.57504 -5.67789 0.0171185 0.00454464 7.30727e-06 -7.80608e-07 1.01222 0
3208 1 4.8785 -5.93745 0.0162664 0.00439258 -8.00177e-06 2.32964e-06 1.01263 0
3241 1 4.72602 -5.80752 0.016877 0.00474052 -1.79359e-06 -1.20731e-06 1.01246 0
3275 1 4.75802 -5.61349 0.0172089 0.00472541 4.49393e-06 -2.72408e-06 1.0123 0
3242 1 4.91032 -5.74063 0.0168314 0.00463171 -3.76762e-07 -7.51186e-07 1.01243 0
3177 1 5.33823 -5.98061 0.0146643 0.00307333 6.53471e-07 5.31533e-06 1.01208 0
3209 1 5.0544 -5.88165 0.0160851 0.00411004 -2.47591e-06 2.31218e-06 1.01242 0
3210 1 5.2284 -5.82273 0.0159389 0.00382408 1.23247e-06 3.44943e-06 1.01213 0
3243 1 5.09076 -5.67806 0.016775 0.00441343 2.62087e-06 8.12663e-07 1.0122 0
3244 1 5.26208 -5.59938 0.0167711 0.00418542 4.29076e-06 2.17814e-06 1.01194 0
3211 1 5.38954 -5.73517 0.015975 0.00364242 2.57009e-06 4.29882e-06 1.01188 0
3179 1 5.59488 -6.02886 0.0133962 0.00229269 6.23528e-07 6.19554e-06 1.01179 0
3180 1 5.7711 -6.02478 0.01287 0.00194856 -6.11968e-07 6.16506e-06 1.01163 0
3178 1 5.49567 -5.88843 0.0148061 0.00297728 1.37454e-06 5.66846e-06 1.01185 0
3212 1 5.5796 -5.71918 0.0156087 0.00322718 1.39087e-06 5.15519e-06 1.0117 0
3213 1 5.7458 -5.64817 0.0156239 0.0030028 -3.86125e-07 5.11556e-06 1.01155 0
3214 1 5.73944 -5.84204 0.0144308 0.00254923 -4.37697e-07 6.00747e-06 1.01161 0
3215 1 5.92801 -5.89092 0.0135714 0.00203758 -2.14165e-06 5.87922e-06 1.01149 0
3248 1 5.91614 -5.68065 0.0150799 0.00255962 -2.3329e-06 5.24035e-06 1.01145 0
3249 1 6.08115 -5.643 0.0149931 0.00229971 -3.81636e-06 4.77781e-06 1.01136 0
3216 1 6.10004 -5.84951 0.0135012 0.00183199 -3.37317e-06 5.32333e-06 1.01138 0
3218 1 6.25928 -6.04192 0.0114715 0.00116594 -3.01877e-06 4.62512e-06 1.01133 0
3217 1 6.26796 -5.81031 0.0134734 0.00163825 -3.99057e-06 4.53443e-06 1.01129 0
3219 1 6.42631 -5.97762 0.0117533 0.00109316 -3.05099e-06 3.8188e-06 1.01125 0
3252 1 6.44426 -5.79573 0.0132837 0.00140174 -3.89266e-06 3.64834e-06 1.01122 0
3253 1 6.6148 -5.7765 0.0131778 0.00119409 -3.30764e-06 2.70238e-06 1.01115 0
3254 1 6.7383 -5.87691 0.0121633 0.000887185 -2.02364e-06 2.05931e-06 1.01108 0
3288 1 6.91112 -5.66953 0.013636 0.000937033 -1.97006e-06 1.11104e-06 1.01102 0
3255 1 6.90649 -5.88002 0.0119315 0.000708784 -8.46939e-07 1.09667e-06 1.01103 0
3289 1 7.08673 -5.65824 0.0135651 0.000737176 -6.99415e-07 2.51105e-07 1.01096 0
3256 1 7.07517 -5.85898 0.011943 0.000572106 2.43801e-07 2.33397e-07 1.01096 0
3290 1 7.26155 -5.65697 0.0134506 0.00054464 5.90456e-07 -5.11584e-07 1.01089 0
3257 1 7.2226 -5.93058 0.0111792 0.000385432 1.56936e-06 -4.73734e-07 1.01089 0
4227 1 4.51967 -0.27072 0.017195 6.72562e-05 -9.29488e-06 6.38701e-07 1.01079 0
4261 1 4.49463 -0.062165 0.0171629 6.13568e-05 -1.38688e-05 -2.45454e-06 1.01086 0
10234 1 2.00237 -5.39266 0.02 0 0 0 1 2
10233 1 2.02573 -5.58762 0.02 0 0 0 1 2
10235 1 2.20929 -5.39695 0.02 0 0 0 1 2
10236 1 2.23142 -5.58573 0.02 0 0 0 1 2
10237 1 2.43975 -5.58705 0.02 0 0 0 1 2
10239 1 2.41951 -5.39695 0.02 0 0 0 1 2
10238 1 2.64336 -5.59168 0.02 0 0 0 1 2
10240 1 2.63012 -5.39862 0.02 0 0 0 1 2
10241 1 2.84445 -5.5651 0.02 0 0 0 1 2
10243 1 2.84613 -5.38031 0.02 0 0 0 1 2
10242 1 3.04579 -5.58955 0.02 0 0 0 1 2
10244 1 3.07537 -5.40096 0.02 0 0 0 1 2
10245 1 3.25138 -5.5831 0.02 0 0 0 1 2
10247 1 3.30177 -5.40162 0.02 0 0 0 1 2
10249 1 3.12335 -5.2199 0.02 0 0 0 1 2
10250 1 3.33428 -5.21781 0.02 0 0 0 1 2
10246 1 3.4674 -5.56434 0.02 0 -1.9216e-06 2.87526e-07 1 2
10248 1 3.52163 -5.37646 0.02 0 -5.80147e-06 9.39296e-07 1 2
10251 1 3.67886 -5.57806 0.02 0 -0.000372785 6.26235e-05 1 2
10253 1 3.72669 -5.39144 0.02 0 -0.000482178 8.24701e-05 1 2
3339 1 4.08698 -5.39907 0.0160175 0.00174528 1.74381e-06 7.86375e-06 1.01315 0
3305 1 4.05472 -5.59212 0.0157981 0.00175693 6.02177e-06 1.71934e-05 1.01328 0
10252 1 3.88666 -5.60188 0.02 0 -0.00240101 0.000521018 1 2
10254 1 3.92585 -5.40365 0.02 0 -0.00244301 0.000543332 1 2
3306 1 4.2368 -5.57362 0.0159847 0.00298214 1.56413e-05 1.55717e-05 1.01388 0
3340 1 4.26491 -5.38327 0.0162416 0.00284913 5.89427e-06 1.13121e-05 1.01368 0
3374 1 4.27837 -5.1883 0.0162884 0.00264632 -3.91888e-06 1.09321e-05 1.01357 0
3307 1 4.4195 -5.52086 0.0170511 0.00382244 1.21348e-05 4.35554e-06 1.0124 0
3341 1 4.44168 -5.32053 0.0172259 0.00361342 6.30416e-06 5.46745e-06 1.01226 0
3308 1 4.59879 -5.48529 0.0173486 0.0043757 8.8748e-06 -6.37573e-07 1.01206 0
3342 1 4.61954 -5.28994 0.0174991 0.00421254 7.70619e-06 5.34327e-07 1.01189 0
3276 1 4.94139 -5.54371 0.0172344 0.00471775 5.13048e-06 -1.60756e-06 1.01223 0
3309 1 4.78105 -5.41978 0.017453 0.00464897 8.12235e-06 -2.4824e-06 1.01212 0
3343 1 4.79838 -5.2255 0.0176002 0.00452914 9.10612e-06 -1.97597e-06 1.01192 0
3310 1 4.96423 -5.34689 0.0175129 0.00470838 8.43968e-06 -2.08371e-06 1.01204 0
3344 1 4.98698 -5.15748 0.0176755 0.00462462 9.88196e-06 -2.41125e-06 1.01186 0
3277 1 5.12069 -5.47028 0.017265 0.00456636 6.20076e-06 -6.90476e-08 1.012 0
3245 1 5.45449 -5.54708 0.0166375 0.00385494 3.54404e-06 3.32503e-06 1.01172 0
3278 1 5.31203 -5.40534 0.017248 0.00431071 5.92654e-06 1.16824e-06 1.01176 0
3311 1 5.15475 -5.27795 0.0175691 0.00458609 8.04493e-06 -8.42187e-07 1.01183 0
3312 1 5.34723 -5.21281 0.0176046 0.00435251 6.83612e-06 -1.27582e-07 1.01162 0
3246 1 5.63213 -5.49522 0.0165427 0.00354271 1.54817e-06 3.73429e-06 1.01157 0
3247 1 5.8259 -5.4669 0.0163574 0.00315949 -1.1553e-06 3.90545e-06 1.01145 0
3279 1 5.50054 -5.34501 0.0172111 0.00401012 4.12487e-06 1.84376e-06 1.01159 0
3280 1 5.69567 -5.30493 0.0171244 0.00365166 1.25454e-06 2.21684e-06 1.01145 0
3313 1 5.54436 -5.15565 0.0176168 0.00404971 4.33391e-06 2.95804e-07 1.01147 0
3281 1 5.89007 -5.27106 0.0170409 0.00327724 -1.69492e-06 2.30895e-06 1.01135 0
3250 1 6.24329 -5.59345 0.0150265 0.00208127 -4.74138e-06 4.10668e-06 1.01128 0
3282 1 6.0033 -5.44924 0.016177 0.00280066 -3.3294e-06 3.79962e-06 1.01135 0
3283 1 6.17235 -5.39952 0.0161921 0.0025209 -4.80055e-06 3.30078e-06 1.01127 0
3316 1 6.07399 -5.22063 0.017054 0.00293939 -3.9407e-06 2.04341e-06 1.01126 0
3317 1 6.25653 -5.19288 0.0170143 0.00258747 -5.38681e-06 1.84148e-06 1.01119 0
3251 1 6.41583 -5.5942 0.0147666 0.00177358 -4.89228e-06 3.4529e-06 1.0112 0
3286 1 6.59444 -5.58306 0.0146102 0.00150086 -4.41221e-06 2.62386e-06 1.01114 0
3284 1 6.35069 -5.386 0.016053 0.00218621 -5.55033e-06 2.88938e-06 1.0112 0
3285 1 6.53004 -5.39012 0.0158457 0.00184794 -5.46493e-06 2.40776e-06 1.01114 0
3318 1 6.44103 -5.18367 0.0169215 0.00222545 -5.95323e-06 1.65841e-06 1.01114 0
3319 1 6.62461 -5.20261 0.0167185 0.00185781 -5.66382e-06 1.47283e-06 1.01109 0
3320 1 6.71909 -5.38707 0.0156944 0.00152577 -4.68417e-06 1.73493e-06 1.01108 0
3287 1 6.77064 -5.58449 0.0144018 0.00123054 -3.40546e-06 1.76093e-06 1.01109 0