ITEM: TIMESTEP
82000
ITEM: NUMBER OF ATOMS
10756
ITEM: BOX BOUNDS ff ff pp
0.0000000000000000e+00 2.2000000000000000e+01
-1.0000000000000000e+01 1.0000000000000000e+01
-2.0000000000000000e-02 2.0000000000000000e-02
ITEM: ATOMS id type x y vx vy fx fy c_den c_phase
1501 2 2 -10 0 0 0 0 1 4
1551 2 2 -9.8 0 0 0 0 1 4
1601 2 2 -9.6 0 0 0 0 1 4
1502 2 2.2 -10 0 0 0 0 1 4
1503 2 2.4 -10 0 0 0 0 1 4
1552 2 2.2 -9.8 0 0 0 0 1 4
1553 2 2.4 -9.8 0 0 0 0 1 4
1602 2 2.2 -9.6 0 0 0 0 1 4
1603 2 2.4 -9.6 0 0 0 0 1 4
1504 2 2.6 -10 0 0 0 0 1 4
1505 2 2.8 -10 0 0 0 0 1 4
1554 2 2.6 -9.8 0 0 0 0 1 4
1555 2 2.8 -9.8 0 0 0 0 1 4
1604 2 2.6 -9.6 0 0 0 0 1 4
1605 2 2.8 -9.6 0 0 0 0 1 4
1506 2 3 -10 0 0 0 0 1 4
1507 2 3.2 -10 0 0 0 0 1 4
1556 2 3 -9.8 0 0 0 0 1 4
1557 2 3.2 -9.8 0 0 0 0 1 4
1606 2 3 -9.6 0 0 0 0 1 4
1607 2 3.2 -9.6 0 0 0 0 1 4
1508 2 3.4 -10 0 0 0 0 1 4
1509 2 3.6 -10 0 0 0 0 1 4
1558 2 3.4 -9.8 0 0 0 0 1 4
1559 2 3.6 -9.8 0 0 0 0 1 4
1608 2 3.4 -9.6 0 0 0 0 1 4
1609 2 3.6 -9.6 0 0 0 0 1 4
1510 2 3.8 -10 0 0 0 0 1 4
1560 2 3.8 -9.8 0 0 0 0 1 4
1610 2 3.8 -9.6 0 0 0 0 1 4
1511 2 4 -10 0 0 0 0 1 4
1561 2 4 -9.8 0 0 0 0 1 4
1611 2 4 -9.6 0 0 0 0 1 4
1512 2 4.2 -10 0 0 0 0 1 4
1562 2 4.2 -9.8 0 0 0 0 1 4
1612 2 4.2 -9.6 0 0 0 0 1 4
1513 2 4.4 -10 0 0 0 0 1 4
1514 2 4.6 -10 0 0 0 0 1 4
1563 2 4.4 -9.8 0 0 0 0 1 4
1564 2 4.6 -9.8 0 0 0 0 1 4
1613 2 4.4 -9.6 0 0 0 0 1 4
1614 2 4.6 -9.6 0 0 0 0 1 4
1515 2 4.8 -10 0 0 0 0 1 4
1516 2 5 -10 0 0 0 0 1 4
1565 2 4.8 -9.8 0 0 0 0 1 4
1566 2 5 -9.8 0 0 0 0 1 4
1615 2 4.8 -9.6 0 0 0 0 1 4
1616 2 5 -9.6 0 0 0 0 1 4
1517 2 5.2 -10 0 0 0 0 1 4
1518 2 5.4 -10 0 0 0 0 1 4
1567 2 5.2 -9.8 0 0 0 0 1 4
1568 2 5.4 -9.8 0 0 0 0 1 4
1617 2 5.2 -9.6 0 0 0 0 1 4
1618 2 5.4 -9.6 0 0 0 0 1 4
1519 2 5.6 -10 0 0 0 0 1 4
1520 2 5.8 -10 0 0 0 0 1 4
1569 2 5.6 -9.8 0 0 0 0 1 4
1570 2 5.8 -9.8 0 0 0 0 1 4
1619 2 5.6 -9.6 0 0 0 0 1 4
1620 2 5.8 -9.6 0 0 0 0 1 4
1521 2 6 -10 0 0 0 0 1 4
1522 2 6.2 -10 0 0 0 0 1 4
1571 2 6 -9.8 0 0 0 0 1 4
1572 2 6.2 -9.8 0 0 0 0 1 4
1621 2 6 -9.6 0 0 0 0 1 4
1622 2 6.2 -9.6 0 0 0 0 1 4
1523 2 6.4 -10 0 0 0 0 1 4
1524 2 6.6 -10 0 0 0 0 1 4
1573 2 6.4 -9.8 0 0 0 0 1 4
1574 2 6.6 -9.8 0 0 0 0 1 4
1623 2 6.4 -9.6 0 0 0 0 1 4
1624 2 6.6 -9.6 0 0 0 0 1 4
1525 2 6.8 -10 0 0 0 0 1 4
1526 2 7 -10 0 0 0 0 1 4
1575 2 6.8 -9.8 0 0 0 0 1 4
1576 2 7 -9.8 0 0 0 0 1 4
1625 2 6.8 -9.6 0 0 0 0 1 4
1626 2 7 -9.6 0 0 0 0 1 4
1527 2 7.2 -10 0 0 0 0 1 4
1577 2 7.2 -9.8 0 0 0 0 1 4
1627 2 7.2 -9.6 0 0 0 0 1 4
1528 2 7.4 -10 0 0 0 0 1 4
1529 2 7.6 -10 0 0 0 0 1 4
1578 2 7.4 -9.8 0 0 0 0 1 4
1579 2 7.6 -9.8 0 0 0 0 1 4
1628 2 7.4 -9.6 0 0 0 0 1 4
1629 2 7.6 -9.6 0 0 0 0 1 4
1530 2 7.8 -10 0 0 0 0 1 4
1531 2 8 -10 0 0 0 0 1 4
1580 2 7.8 -9.8 0 0 0 0 1 4
1581 2 8 -9.8 0 0 0 0 1 4
1630 2 7.8 -9.6 0 0 0 0 1 4
1631 2 8 -9.6 0 0 0 0 1 4
1532 2 8.2 -10 0 0 0 0 1 4
1533 2 8.4 -10 0 0 0 0 1 4
1582 2 8.2 -9.8 0 0 0 0 1 4
1583 2 8.4 -9.8 0 0 0 0 1 4
1632 2 8.2 -9.6 0 0 0 0 1 4
1633 2 8.4 -9.6 0 0 0 0 1 4
1534 2 8.6 -10 0 0 0 0 1 4
1535 2 8.8 -10 0 0 0 0 1 4
1584 2 8.6 -9.8 0 0 0 0 1 4
1585 2 8.8 -9.8 0 0 0 0 1 4
1634 2 8.6 -9.6 0 0 0 0 1 4
1635 2 8.8 -9.6 0 0 0 0 1 4
1536 2 9 -10 0 0 0 0 1 4
1537 2 9.2 -10 0 0 0 0 1 4
1586 2 9 -9.8 0 0 0 0 1 4
1587 2 9.2 -9.8 0 0 0 0 1 4
1636 2 9 -9.6 0 0 0 0 1 4
1637 2 9.2 -9.6 0 0 0 0 1 4
1538 2 9.4 -10 0 0 0 0 1 4
1539 2 9.6 -10 0 0 0 0 1 4
1588 2 9.4 -9.8 0 0 0 0 1 4
1589 2 9.6 -9.8 0 0 0 0 1 4
1638 2 9.4 -9.6 0 0 0 0 1 4
1639 2 9.6 -9.6 0 0 0 0 1 4
1540 2 9.8 -10 0 0 0 0 1 4
1590 2 9.8 -9.8 0 0 0 0 1 4
1640 2 9.8 -9.6 0 0 0 0 1 4
1541 2 10 -10 0 0 0 0 1 4
1591 2 10 -9.8 0 0 0 0 1 4
1641 2 10 -9.6 0 0 0 0 1 4
1542 2 10.2 -10 0 0 0 0 1 4
1592 2 10.2 -9.8 0 0 0 0 1 4
1642 2 10.2 -9.6 0 0 0 0 1 4
1543 2 10.4 -10 0 0 0 0 1 4
1593 2 10.4 -9.8 0 0 0 0 1 4
1643 2 10.4 -9.6 0 0 0 0 1 4
1544 2 10.6 -10 0 0 0 0 1 4
1594 2 10.6 -9.8 0 0 0 0 1 4
1644 2 10.6 -9.6 0 0 0 0 1 4
1545 2 10.8 -10 0 0 0 0 1 4
1595 2 10.8 -9.8 0 0 0 0 1 4
1645 2 10.8 -9.6 0 0 0 0 1 4
1651 2 2 -9.4 0 0 0 0 1 4
1701 2 2 -9.2 0 0 0 0 1 4
1652 2 2.2 -9.4 0 0 0 0 1 4
1653 2 2.4 -9.4 0 0 0 0 1 4
1702 2 2.2 -9.2 0 0 0 0 1 4
1703 2 2.4 -9.2 0 0 0 0 1 4
1654 2 2.6 -9.4 0 0 0 0 1 4
1655 2 2.8 -9.4 0 0 0 0 1 4
1704 2 2.6 -9.2 0 0 0 0 1 4
1705 2 2.8 -9.2 0 0 0 0 1 4
1656 2 3 -9.4 0 0 0 0 1 4
1657 2 3.2 -9.4 0 0 0 0 1 4
1706 2 3 -9.2 0 0 0 0 1 4
1707 2 3.2 -9.2 0 0 0 0 1 4
1658 2 3.4 -9.4 0 0 0 0 1 4
1659 2 3.6 -9.4 0 0 0 0 1 4
1708 2 3.4 -9.2 0 0 0 0 1 4
1709 2 3.6 -9.2 0 0 0 0 1 4
1660 2 3.8 -9.4 0 0 0 0 1 4
1710 2 3.8 -9.2 0 0 0 0 1 4
1661 2 4 -9.4 0 0 0 0 1 4
1711 2 4 -9.2 0 0 0 0 1 4
1662 2 4.2 -9.4 0 0 0 0 1 4
1712 2 4.2 -9.2 0 0 0 0 1 4
1663 2 4.4 -9.4 0 0 0 0 1 4
1664 2 4.6 -9.4 0 0 0 0 1 4
1713 2 4.4 -9.2 0 0 0 0 1 4
1714 2 4.6 -9.2 0 0 0 0 1 4
1665 2 4.8 -9.4 0 0 0 0 1 4
1666 2 5 -9.4 0 0 0 0 1 4
1715 2 4.8 -9.2 0 0 0 0 1 4
1716 2 5 -9.2 0 0 0 0 1 4
1667 2 5.2 -9.4 0 0 0 0 1 4
1668 2 5.4 -9.4 0 0 0 0 1 4
1717 2 5.2 -9.2 0 0 0 0 1 4
1718 2 5.4 -9.2 0 0 0 0 1 4
1669 2 5.6 -9.4 0 0 0 0 1 4
1670 2 5.8 -9.4 0 0 0 0 1 4
1719 2 5.6 -9.2 0 0 0 0 1 4
1720 2 5.8 -9.2 0 0 0 0 1 4
1671 2 6 -9.4 0 0 0 0 1 4
1672 2 6.2 -9.4 0 0 0 0 1 4
1721 2 6 -9.2 0 0 0 0 1 4
1722 2 6.2 -9.2 0 0 0 0 1 4
1673 2 6.4 -9.4 0 0 0 0 1 4
1674 2 6.6 -9.4 0 0 0 0 1 4
1723 2 6.4 -9.2 0 0 0 0 1 4
1724 2 6.6 -9.2 0 0 0 0 1 4
1675 2 6.8 -9.4 0 0 0 0 1 4
1676 2 7 -9.4 0 0 0 0 1 4
1725 2 6.8 -9.2 0 0 0 0 1 4
1726 2 7 -9.2 0 0 0 0 1 4
1677 2 7.2 -9.4 0 0 0 0 1 4
1727 2 7.2 -9.2 0 0 0 0 1 4
1678 2 7.4 -9.4 0 0 0 0 1 4
1679 2 7.6 -9.4 0 0 0 0 1 4
1728 2 7.4 -9.2 0 0 0 0 1 4
1729 2 7.6 -9.2 0 0 0 0 1 4
1680 2 7.8 -9.4 0 0 0 0 1 4
1681 2 8 -9.4 0 0 0 0 1 4
1730 2 7.8 -9.2 0 0 0 0 1 4
1731 2 8 -9.2 0 0 0 0 1 4
1682 2 8.2 -9.4 0 0 0 0 1 4
1683 2 8.4 -9.4 0 0 0 0 1 4
1732 2 8.2 -9.2 0 0 0 0 1 4
1733 2 8.4 -9.2 0 0 0 0 1 4
1684 2 8.6 -9.4 0 0 0 0 1 4
1685 2 8.8 -9.4 0 0 0 0 1 4
1734 2 8.6 -9.2 0 0 0 0 1 4
1735 2 8.8 -9.2 0 0 0 0 1 4
1686 2 9 -9.4 0 0 0 0 1 4
1687 2 9.2 -9.4 0 0 0 0 1 4
1736 2 9 -9.2 0 0 0 0 1 4
1737 2 9.2 -9.2 0 0 0 0 1 4
1688 2 9.4 -9.4 0 0 0 0 1 4
1689 2 9.6 -9.4 0 0 0 0 1 4
1738 2 9.4 -9.2 0 0 0 0 1 4
1739 2 9.6 -9.2 0 0 0 0 1 4
1690 2 9.8 -9.4 0 0 0 0 1 4
1740 2 9.8 -9.2 0 0 0 0 1 4
1691 2 10 -9.4 0 0 0 0 1 4
1741 2 10 -9.2 0 0 0 0 1 4
1692 2 10.2 -9.4 0 0 0 0 1 4
1742 2 10.2 -9.2 0 0 0 0 1 4
1693 2 10.4 -9.4 0 0 0 0 1 4
1743 2 10.4 -9.2 0 0 0 0 1 4
1694 2 10.6 -9.4 0 0 0 0 1 4
1744 2 10.6 -9.2 0 0 0 0 1 4
1695 2 10.8 -9.4 0 0 0 0 1 4
1745 2 10.8 -9.2 0 0 0 0 1 4
1751 2 2 -9 0 0 0 0 1 4
1801 2 2 -8.8 0 0 0 0 1 4
1752 2 2.2 -9 0 0 0 0 1 4
1753 2 2.4 -9 0 0 0 0 1 4
1802 2 2.2 -8.8 0 0 0 0 1 4
1803 2 2.4 -8.8 0 0 0 0 1 4
1754 2 2.6 -9 0 0 0 0 1 4
1755 2 2.8 -9 0 0 0 0 1 4
1804 2 2.6 -8.8 0 0 0 0 1 4
1805 2 2.8 -8.8 0 0 0 0 1 4
1756 2 3 -9 0 0 0 0 1 4
1757 2 3.2 -9 0 0 0 0 1 4
1806 2 3 -8.8 0 0 0 0 1 4
1807 2 3.2 -8.8 0 0 0 0 1 4
1758 2 3.4 -9 0 0 0 0 1 4
1759 2 3.6 -9 0 0 0 0 1 4
1808 2 3.4 -8.8 0 0 0 0 1 4
1809 2 3.6 -8.8 0 0 0 0 1 4
1760 2 3.8 -9 0 0 0 0 1 4
1810 2 3.8 -8.8 0 0 0 0 1 4
1761 2 4 -9 0 0 0 0 1 4
1811 2 4 -8.8 0 0 0 0 1 4
1762 2 4.2 -9 0 0 0 0 1 4
1812 2 4.2 -8.8 0 0 0 0 1 4
1763 2 4.4 -9 0 0 0 0 1 4
1764 2 4.6 -9 0 0 0 0 1 4
1813 2 4.4 -8.8 0 0 0 0 1 4
1814 2 4.6 -8.8 0 0 0 0 1 4
1765 2 4.8 -9 0 0 0 0 1 4
1766 2 5 -9 0 0 0 0 1 4
1815 2 4.8 -8.8 0 0 0 0 1 4
1816 2 5 -8.8 0 0 0 0 1 4
1767 2 5.2 -9 0 0 0 0 1 4
1768 2 5.4 -9 0 0 0 0 1 4
1817 2 5.2 -8.8 0 0 0 0 1 4
1818 2 5.4 -8.8 0 0 0 0 1 4
1769 2 5.6 -9 0 0 0 0 1 4
1770 2 5.8 -9 0 0 0 0 1 4
1819 2 5.6 -8.8 0 0 0 0 1 4
1820 2 5.8 -8.8 0 0 0 0 1 4
1771 2 6 -9 0 0 0 0 1 4
1772 2 6.2 -9 0 0 0 0 1 4
1821 2 6 -8.8 0 0 0 0 1 4
1822 2 6.2 -8.8 0 0 0 0 1 4
1773 2 6.4 -9 0 0 0 0 1 4
1774 2 6.6 -9 0 0 0 0 1 4
1823 2 6.4 -8.8 0 0 0 0 1 4
1824 2 6.6 -8.8 0 0 0 0 1 4
1775 2 6.8 -9 0 0 0 0 1 4
1776 2 7 -9 0 0 0 0 1 4
1825 2 6.8 -8.8 0 0 0 0 1 4
1826 2 7 -8.8 0 0 0 0 1 4
1777 2 7.2 -9 0 0 0 0 1 4
1827 2 7.2 -8.8 0 0 0 0 1 4
1778 2 7.4 -9 0 0 0 0 1 4
1779 2 7.6 -9 0 0 0 0 1 4
1828 2 7.4 -8.8 0 0 0 0 1 4
1829 2 7.6 -8.8 0 0 0 0 1 4
1780 2 7.8 -9 0 0 0 0 1 4
1781 2 8 -9 0 0 0 0 1 4
1830 2 7.8 -8.8 0 0 0 0 1 4
1831 2 8 -8.8 0 0 0 0 1 4
1782 2 8.2 -9 0 0 0 0 1 4
1783 2 8.4 -9 0 0 0 0 1 4
1832 2 8.2 -8.8 0 0 0 0 1 4
1833 2 8.4 -8.8 0 0 0 0 1 4
1784 2 8.6 -9 0 0 0 0 1 4
1785 2 8.8 -9 0 0 0 0 1 4
1834 2 8.6 -8.8 0 0 0 0 1 4
1835 2 8.8 -8.8 0 0 0 0 1 4
1786 2 9 -9 0 0 0 0 1 4
1787 2 9.2 -9 0 0 0 0 1 4
1836 2 9 -8.8 0 0 0 0 1 4
1837 2 9.2 -8.8 0 0 0 0 1 4
1788 2 9.4 -9 0 0 0 0 1 4
1789 2 9.6 -9 0 0 0 0 1 4
1838 2 9.4 -8.8 0 0 0 0 1 4
1839 2 9.6 -8.8 0 0 0 0 1 4
1790 2 9.8 -9 0 0 0 0 1 4
1840 2 9.8 -8.8 0 0 0 0 1 4
1791 2 10 -9 0 0 0 0 1 4
1841 2 10 -8.8 0 0 0 0 1 4
1792 2 10.2 -9 0 0 0 0 1 4
1842 2 10.2 -8.8 0 0 0 0 1 4
1793 2 10.4 -9 0 0 0 0 1 4
1843 2 10.4 -8.8 0 0 0 0 1 4
1794 2 10.6 -9 0 0 0 0 1 4
1844 2 10.6 -8.8 0 0 0 0 1 4
1795 2 10.8 -9 0 0 0 0 1 4
1845 2 10.8 -8.8 0 0 0 0 1 4
1851 2 2 -8.6 0 0 0 0 1 4
1901 2 2 -8.4 0 0 0 0 1 4
1852 2 2.2 -8.6 0 0 0 0 1 4
1853 2 2.4 -8.6 0 0 0 0 1 4
1902 2 2.2 -8.4 0 0 0 0 1 4
1903 2 2.4 -8.4 0 0 0 0 1 4
1854 2 2.6 -8.6 0 0 0 0 1 4
1855 2 2.8 -8.6 0 0 0 0 1 4
1904 2 2.6 -8.4 0 0 0 0 1 4
1905 2 2.8 -8.4 0 0 0 0 1 4
1856 2 3 -8.6 0 0 0 0 1 4
1857 2 3.2 -8.6 0 0 0 0 1 4
1906 2 3 -8.4 0 0 0 0 1 4
1907 2 3.2 -8.4 0 0 0 0 1 4
1858 2 3.4 -8.6 0 0 0 0 1 4
1859 2 3.6 -8.6 0 0 0 0 1 4
1908 2 3.4 -8.4 0 0 0 0 1 4
1909 2 3.6 -8.4 0 0 0 0 1 4
1860 2 3.8 -8.6 0 0 0 0 1 4
1910 2 3.8 -8.4 0 0 0 0 1 4
1861 2 4 -8.6 0 0 0 0 1 4
1911 2 4 -8.4 0 0 0 0 1 4
1862 2 4.2 -8.6 0 0 0 0 1 4
1912 2 4.2 -8.4 0 0 0 0 1 4
1863 2 4.4 -8.6 0 0 0 0 1 4
1864 2 4.6 -8.6 0 0 0 0 1 4
1913 2 4.4 -8.4 0 0 0 0 1 4
1914 2 4.6 -8.4 0 0 0 0 1 4
1865 2 4.8 -8.6 0 0 0 0 1 4
1866 2 5 -8.6 0 0 0 0 1 4
1915 2 4.8 -8.4 0 0 0 0 1 4
1916 2 5 -8.4 0 0 0 0 1 4
1867 2 5.2 -8.6 0 0 0 0 1 4
1868 2 5.4 -8.6 0 0 0 0 1 4
1917 2 5.2 -8.4 0 0 0 0 1 4
1918 2 5.4 -8.4 0 0 0 0 1 4
1869 2 5.6 -8.6 0 0 0 0 1 4
1870 2 5.8 -8.6 0 0 0 0 1 4
1919 2 5.6 -8.4 0 0 0 0 1 4
1920 2 5.8 -8.4 0 0 0 0 1 4
1871 2 6 -8.6 0 0 0 0 1 4
1872 2 6.2 -8.6 0 0 0 0 1 4
1921 2 6 -8.4 0 0 0 0 1 4
1922 2 6.2 -8.4 0 0 0 0 1 4
1873 2 6.4 -8.6 0 0 0 0 1 4
1874 2 6.6 -8.6 0 0 0 0 1 4
1923 2 6.4 -8.4 0 0 0 0 1 4
1924 2 6.6 -8.4 0 0 0 0 1 4
1875 2 6.8 -8.6 0 0 0 0 1 4
1876 2 7 -8.6 0 0 0 0 1 4
1925 2 6.8 -8.4 0 0 0 0 1 4
1926 2 7 -8.4 0 0 0 0 1 4
1877 2 7.2 -8.6 0 0 0 0 1 4
1927 2 7.2 -8.4 0 0 0 0 1 4
1878 2 7.4 -8.6 0 0 0 0 1 4
1879 2 7.6 -8.6 0 0 0 0 1 4
1928 2 7.4 -8.4 0 0 0 0 1 4
1929 2 7.6 -8.4 0 0 0 0 1 4
1880 2 7.8 -8.6 0 0 0 0 1 4
1881 2 8 -8.6 0 0 0 0 1 4
1930 2 7.8 -8.4 0 0 0 0 1 4
1931 2 8 -8.4 0 0 0 0 1 4
1882 2 8.2 -8.6 0 0 0 0 1 4
1883 2 8.4 -8.6 0 0 0 0 1 4
1932 2 8.2 -8.4 0 0 0 0 1 4
1933 2 8.4 -8.4 0 0 0 0 1 4
1884 2 8.6 -8.6 0 0 0 0 1 4
1885 2 8.8 -8.6 0 0 0 0 1 4
1934 2 8.6 -8.4 0 0 0 0 1 4
1935 2 8.8 -8.4 0 0 0 0 1 4
1886 2 9 -8.6 0 0 0 0 1 4
1887 2 9.2 -8.6 0 0 0 0 1 4
1936 2 9 -8.4 0 0 0 0 1 4
1937 2 9.2 -8.4 0 0 0 0 1 4
1888 2 9.4 -8.6 0 0 0 0 1 4
1889 2 9.6 -8.6 0 0 0 0 1 4
1938 2 9.4 -8.4 0 0 0 0 1 4
1939 2 9.6 -8.4 0 0 0 0 1 4
1890 2 9.8 -8.6 0 0 0 0 1 4
1940 2 9.8 -8.4 0 0 0 0 1 4
1891 2 10 -8.6 0 0 0 0 1 4
1941 2 10 -8.4 0 0 0 0 1 4
1892 2 10.2 -8.6 0 0 0 0 1 4
1942 2 10.2 -8.4 0 0 0 0 1 4
1893 2 10.4 -8.6 0 0 0 0 1 4
1943 2 10.4 -8.4 0 0 0 0 1 4
1894 2 10.6 -8.6 0 0 0 0 1 4
1944 2 10.6 -8.4 0 0 0 0 1 4
1895 2 10.8 -8.6 0 0 0 0 1 4
1945 2 10.8 -8.4 0 0 0 0 1 4
1951 2 2 -8.2 0 0 0 0 1 4
2001 2 2 -8 0 0 0 0 1 4
1952 2 2.2 -8.2 0 0 0 0 1 4
1953 2 2.4 -8.2 0 0 0 0 1 4
2002 2 2.2 -8 0 0 0 0 1 4
2003 2 2.4 -8 0 0 0 0 1 4
1954 2 2.6 -8.2 0 0 0 0 1 4
1955 2 2.8 -8.2 0 0 0 0 1 4
2004 2 2.6 -8 0 0 0 0 1 4
2005 2 2.8 -8 0 0 0 0 1 4
1956 2 3 -8.2 0 0 0 0 1 4
1957 2 3.2 -8.2 0 0 0 0 1 4
2006 2 3 -8 0 0 0 0 1 4
2007 2 3.2 -8 0 0 0 0 1 4
1958 2 3.4 -8.2 0 0 0 0 1 4
1959 2 3.6 -8.2 0 0 0 0 1 4
2008 2 3.4 -8 0 0 0 0 1 4
2009 2 3.6 -8 0 0 0 0 1 4
1960 2 3.8 -8.2 0 0 0 0 1 4
2010 2 3.8 -8 0 0 0 0 1 4
1961 2 4 -8.2 0 0 0 0 1 4
2011 2 4 -8 0 0 0 0 1 4
1962 2 4.2 -8.2 0 0 0 0 1 4
2012 2 4.2 -8 0 0 0 0 1 4
1963 2 4.4 -8.2 0 0 0 0 1 4
1964 2 4.6 -8.2 0 0 0 0 1 4
2013 2 4.4 -8 0 0 0 0 1 4
2014 2 4.6 -8 0 0 0 0 1 4
1965 2 4.8 -8.2 0 0 0 0 1 4
1966 2 5 -8.2 0 0 0 0 1 4
2015 2 4.8 -8 0 0 0 0 1 4
2016 2 5 -8 0 0 0 0 1 4
1967 2 5.2 -8.2 0 0 0 0 1 4
1968 2 5.4 -8.2 0 0 0 0 1 4
2017 2 5.2 -8 0 0 0 0 1 4
2018 2 5.4 -8 0 0 0 0 1 4
1969 2 5.6 -8.2 0 0 0 0 1 4
1970 2 5.8 -8.2 0 0 0 0 1 4
2019 2 5.6 -8 0 0 0 0 1 4
2020 2 5.8 -8 0 0 0 0 1 4
1971 2 6 -8.2 0 0 0 0 1 4
1972 2 6.2 -8.2 0 0 0 0 1 4
2021 2 6 -8 0 0 0 0 1 4
2022 2 6.2 -8 0 0 0 0 1 4
1973 2 6.4 -8.2 0 0 0 0 1 4
1974 2 6.6 -8.2 0 0 0 0 1 4
2023 2 6.4 -8 0 0 0 0 1 4
2024 2 6.6 -8 0 0 0 0 1 4
1975 2 6.8 -8.2 0 0 0 0 1 4
1976 2 7 -8.2 0 0 0 0 1 4
2025 2 6.8 -8 0 0 0 0 1 4
2026 2 7 -8 0 0 0 0 1 4
1977 2 7.2 -8.2 0 0 0 0 1 4
2027 2 7.2 -8 0 0 0 0 1 4
1978 2 7.4 -8.2 0 0 0 0 1 4
1979 2 7.6 -8.2 0 0 0 0 1 4
2028 2 7.4 -8 0 0 0 0 1 4
2029 2 7.6 -8 0 0 0 0 1 4
1980 2 7.8 -8.2 0 0 0 0 1 4
1981 2 8 -8.2 0 0 0 0 1 4
2030 2 7.8 -8 0 0 0 0 1 4
2031 2 8 -8 0 0 0 0 1 4
1982 2 8.2 -8.2 0 0 0 0 1 4
1983 2 8.4 -8.2 0 0 0 0 1 4
2032 2 8.2 -8 0 0 0 0 1 4
2033 2 8.4 -8 0 0 0 0 1 4
1984 2 8.6 -8.2 0 0 0 0 1 4
1985 2 8.8 -8.2 0 0 0 0 1 4
2034 2 8.6 -8 0 0 0 0 1 4
2035 2 8.8 -8 0 0 0 0 1 4
1986 2 9 -8.2 0 0 0 0 1 4
1987 2 9.2 -8.2 0 0 0 0 1 4
2036 2 9 -8 0 0 0 0 1 4
2037 2 9.2 -8 0 0 0 0 1 4
1988 2 9.4 -8.2 0 0 0 0 1 4
1989 2 9.6 -8.2 0 0 0 0 1 4
2038 2 9.4 -8 0 0 0 0 1 4
2039 2 9.6 -8 0 0 0 0 1 4
1990 2 9.8 -8.2 0 0 0 0 1 4
2040 2 9.8 -8 0 0 0 0 1 4
1991 2 10 -8.2 0 0 0 0 1 4
2041 2 10 -8 0 0 0 0 1 4
1992 2 10.2 -8.2 0 0 0 0 1 4
2042 2 10.2 -8 0 0 0 0 1 4
1993 2 10.4 -8.2 0 0 0 0 1 4
2043 2 10.4 -8 0 0 0 0 1 4
1994 2 10.6 -8.2 0 0 0 0 1 4
2044 2 10.6 -8 0 0 0 0 1 4
1995 2 10.8 -8.2 0 0 0 0 1 4
2045 2 10.8 -8 0 0 0 0 1 4
2051 2 2 -7.8 0 0 0 0 1 4
2101 2 2 -7.6 0 0 0 0 1 4
2151 2 2 -7.4 0 0 0 0 1.00009 4
2052 2 2.2 -7.8 0 0 0 0 1 4
2053 2 2.4 -7.8 0 0 0 0 1 4
2102 2 2.2 -7.6 0 0 0 0 1 4
2103 2 2.4 -7.6 0 0 0 0 1 4
2152 2 2.2 -7.4 0 0 0 0 0.99992 4
2153 2 2.4 -7.4 0 0 0 0 0.999989 4
2054 2 2.6 -7.8 0 0 0 0 1 4
2055 2 2.8 -7.8 0 0 0 0 1 4
2104 2 2.6 -7.6 0 0 0 0 1 4
2105 2 2.8 -7.6 0 0 0 0 1 4
2154 2 2.6 -7.4 0 0 0 0 0.999997 4
2155 2 2.8 -7.4 0 0 0 0 0.999998 4
2056 2 3 -7.8 0 0 0 0 1 4
2057 2 3.2 -7.8 0 0 0 0 1 4
2106 2 3 -7.6 0 0 0 0 1 4
2107 2 3.2 -7.6 0 0 0 0 1 4
2156 2 3 -7.4 0 0 0 0 1.00002 4
2157 2 3.2 -7.4 0 0 0 0 1.00002 4
2058 2 3.4 -7.8 0 0 0 0 1 4
2059 2 3.6 -7.8 0 0 0 0 1 4
2108 2 3.4 -7.6 0 0 0 0 1 4
2109 2 3.6 -7.6 0 0 0 0 1 4
2158 2 3.4 -7.4 0 0 0 0 0.999987 4
2159 2 3.6 -7.4 0 0 0 0 1.00001 4
2060 2 3.8 -7.8 0 0 0 0 1 4
2110 2 3.8 -7.6 0 0 0 0 1 4
2160 2 3.8 -7.4 0 0 0 0 1.00004 4
2061 2 4 -7.8 0 0 0 0 1 4
2111 2 4 -7.6 0 0 0 0 1 4
2161 2 4 -7.4 0 0 0 0 1.00634 4
2062 2 4.2 -7.8 0 0 0 0 1 4
2112 2 4.2 -7.6 0 0 0 0 1 4
2162 2 4.2 -7.4 0 0 0 0 1.01355 4
2063 2 4.4 -7.8 0 0 0 0 1 4
2064 2 4.6 -7.8 0 0 0 0 1 4
2113 2 4.4 -7.6 0 0 0 0 1 4
2114 2 4.6 -7.6 0 0 0 0 1 4
2163 2 4.4 -7.4 0 0 0 0 1.00511 4
2164 2 4.6 -7.4 0 0 0 0 1.004 4
2065 2 4.8 -7.8 0 0 0 0 1 4
2066 2 5 -7.8 0 0 0 0 1 4
2115 2 4.8 -7.6 0 0 0 0 1 4
2116 2 5 -7.6 0 0 0 0 1 4
2165 2 4.8 -7.4 0 0 0 0 1.00289 4
2166 2 5 -7.4 0 0 0 0 1.00222 4
2067 2 5.2 -7.8 0 0 0 0 1 4
2068 2 5.4 -7.8 0 0 0 0 1 4
2117 2 5.2 -7.6 0 0 0 0 1 4
2118 2 5.4 -7.6 0 0 0 0 1 4
2167 2 5.2 -7.4 0 0 0 0 1.00225 4
2168 2 5.4 -7.4 0 0 0 0 1.0023 4
2069 2 5.6 -7.8 0 0 0 0 1 4
2070 2 5.8 -7.8 0 0 0 0 1 4
2119 2 5.6 -7.6 0 0 0 0 1 4
2120 2 5.8 -7.6 0 0 0 0 1 4
2169 2 5.6 -7.4 0 0 0 0 1.00197 4
2170 2 5.8 -7.4 0 0 0 0 1.002 4
2071 2 6 -7.8 0 0 0 0 1 4
2072 2 6.2 -7.8 0 0 0 0 1 4
2121 2 6 -7.6 0 0 0 0 1 4
2122 2 6.2 -7.6 0 0 0 0 1 4
2171 2 6 -7.4 0 0 0 0 1.00199 4
2172 2 6.2 -7.4 0 0 0 0 1.00187 4
2073 2 6.4 -7.8 0 0 0 0 1 4
2074 2 6.6 -7.8 0 0 0 0 1 4
2123 2 6.4 -7.6 0 0 0 0 1 4
2124 2 6.6 -7.6 0 0 0 0 1 4
2173 2 6.4 -7.4 0 0 0 0 1.00174 4
2174 2 6.6 -7.4 0 0 0 0 1.00173 4
2075 2 6.8 -7.8 0 0 0 0 1 4
2076 2 7 -7.8 0 0 0 0 1 4
2125 2 6.8 -7.6 0 0 0 0 1 4
2126 2 7 -7.6 0 0 0 0 1 4
2175 2 6.8 -7.4 0 0 0 0 1.00171 4
2176 2 7 -7.4 0 0 0 0 1.00164 4
2077 2 7.2 -7.8 0 0 0 0 1 4
2127 2 7.2 -7.6 0 0 0 0 1 4
2177 2 7.2 -7.4 0 0 0 0 1.00163 4
2078 2 7.4 -7.8 0 0 0 0 1 4
2079 2 7.6 -7.8 0 0 0 0 1 4
2128 2 7.4 -7.6 0 0 0 0 1 4
2129 2 7.6 -7.6 0 0 0 0 1 4
2178 2 7.4 -7.4 0 0 0 0 1.00156 4
2179 2 7.6 -7.4 0 0 0 0 1.00152 4
2080 2 7.8 -7.8 0 0 0 0 1 4
2081 2 8 -7.8 0 0 0 0 1 4
2130 2 7.8 -7.6 0 0 0 0 1 4
2131 2 8 -7.6 0 0 0 0 1 4
2180 2 7.8 -7.4 0 0 0 0 1.00158 4
2181 2 8 -7.4 0 0 0 0 1.00152 4
2082 2 8.2 -7.8 0 0 0 0 1 4
2083 2 8.4 -7.8 0 0 0 0 1 4
2132 2 8.2 -7.6 0 0 0 0 1 4
2133 2 8.4 -7.6 0 0 0 0 1 4
2182 2 8.2 -7.4 0 0 0 0 1.00146 4
2183 2 8.4 -7.4 0 0 0 0 1.00149 4
2084 2 8.6 -7.8 0 0 0 0 1 4
2085 2 8.8 -7.8 0 0 0 0 1 4
2134 2 8.6 -7.6 0 0 0 0 1 4
2135 2 8.8 -7.6 0 0 0 0 1 4
2184 2 8.6 -7.4 0 0 0 0 1.00141 4
2185 2 8.8 -7.4 0 0 0 0 1.00127 4
2086 2 9 -7.8 0 0 0 0 1 4
2087 2 9.2 -7.8 0 0 0 0 1 4
2136 2 9 -7.6 0 0 0 0 1 4
2137 2 9.2 -7.6 0 0 0 0 1 4
2186 2 9 -7.4 0 0 0 0 1.00138 4
2187 2 9.2 -7.4 0 0 0 0 1.00134 4
2088 2 9.4 -7.8 0 0 0 0 1 4
2089 2 9.6 -7.8 0 0 0 0 1 4
2138 2 9.4 -7.6 0 0 0 0 1 4
2139 2 9.6 -7.6 0 0 0 0 1 4
2188 2 9.4 -7.4 0 0 0 0 1.00137 4
2189 2 9.6 -7.4 0 0 0 0 1.00138 4
2090 2 9.8 -7.8 0 0 0 0 1 4
2140 2 9.8 -7.6 0 0 0 0 1 4
2190 2 9.8 -7.4 0 0 0 0 1.00144 4
2091 2 10 -7.8 0 0 0 0 1 4
2141 2 10 -7.6 0 0 0 0 1 4
2191 2 10 -7.4 0 0 0 0 1.00127 4
2092 2 10.2 -7.8 0 0 0 0 1 4
2142 2 10.2 -7.6 0 0 0 0 1 4
2192 2 10.2 -7.4 0 0 0 0 1.00123 4
2093 2 10.4 -7.8 0 0 0 0 1 4
2143 2 10.4 -7.6 0 0 0 0 1 4
2193 2 10.4 -7.4 0 0 0 0 1.00121 4
2094 2 10.6 -7.8 0 0 0 0 1 4
2144 2 10.6 -7.6 0 0 0 0 1 4
2194 2 10.6 -7.4 0 0 0 0 1.00116 4
2095 2 10.8 -7.8 0 0 0 0 1 4
2145 2 10.8 -7.6 0 0 0 0 1 4
2195 2 10.8 -7.4 0 0 0 0 1.00122 4
2201 2 2 -7.2 0 0 0 0 1.00011 4
2251 2 2 -7 0 0 0 0 1.0001 4
2202 2 2.2 -7.2 0 0 0 0 0.999957 4
2203 2 2.4 -7.2 0 0 0 0 0.99997 4
2252 2 2.2 -7 0 0 0 0 0.999975 4
2253 2 2.4 -7 0 0 0 0 0.99997 4
2204 2 2.6 -7.2 0 0 0 0 0.999993 4
2205 2 2.8 -7.2 0 0 0 0 1 4
2254 2 2.6 -7 0 0 0 0 0.999991 4
2255 2 2.8 -7 0 0 0 0 1 4
2206 2 3 -7.2 0 0 0 0 1.00001 4
2207 2 3.2 -7.2 0 0 0 0 1.00001 4
2256 2 3 -7 0 0 0 0 1.00001 4
2257 2 3.2 -7 0 0 0 0 1.00001 4
2208 2 3.4 -7.2 0 0 0 0 0.999996 4
2209 2 3.6 -7.2 0 0 0 0 1.00002 4
2258 2 3.4 -7 0 0 0 0 0.999998 4
2259 2 3.6 -7 0 0 0 0 1.00004 4
2210 2 3.8 -7.2 0 0 0 0 1.00104 4
2260 2 3.8 -7 0 0 0 0 1.00139 4
2211 2 4 -7.2 0 0 0 0 1.00653 4
2261 2 4 -7 0 0 0 0 1.00593 4
2212 2 4.2 -7.2 0 0 0 0 1.00962 4
2262 2 4.2 -7 0 0 0 0 1.00886 4
2213 2 4.4 -7.2 0 0 0 0 1.00632 4
2214 2 4.6 -7.2 0 0 0 0 1.00439 4
2263 2 4.4 -7 0 0 0 0 1.00696 4
2264 2 4.6 -7 0 0 0 0 1.00466 4
2215 2 4.8 -7.2 0 0 0 0 1.00297 4
2216 2 5 -7.2 0 0 0 0 1.00251 4
2265 2 4.8 -7 0 0 0 0 1.00325 4
2266 2 5 -7 0 0 0 0 1.0028 4
2217 2 5.2 -7.2 0 0 0 0 1.00252 4
2218 2 5.4 -7.2 0 0 0 0 1.00251 4
2267 2 5.2 -7 0 0 0 0 1.00275 4
2268 2 5.4 -7 0 0 0 0 1.00265 4
2219 2 5.6 -7.2 0 0 0 0 1.00219 4
2220 2 5.8 -7.2 0 0 0 0 1.00213 4
2269 2 5.6 -7 0 0 0 0 1.00238 4
2270 2 5.8 -7 0 0 0 0 1.00229 4
2221 2 6 -7.2 0 0 0 0 1.00213 4
2222 2 6.2 -7.2 0 0 0 0 1.00198 4
2271 2 6 -7 0 0 0 0 1.00224 4
2272 2 6.2 -7 0 0 0 0 1.00209 4
2223 2 6.4 -7.2 0 0 0 0 1.00187 4
2224 2 6.6 -7.2 0 0 0 0 1.00184 4
2273 2 6.4 -7 0 0 0 0 1.002 4
2274 2 6.6 -7 0 0 0 0 1.00195 4
2225 2 6.8 -7.2 0 0 0 0 1.00178 4
2226 2 7 -7.2 0 0 0 0 1.00172 4
2275 2 6.8 -7 0 0 0 0 1.00187 4
2276 2 7 -7 0 0 0 0 1.00181 4
2227 2 7.2 -7.2 0 0 0 0 1.00169 4
2277 2 7.2 -7 0 0 0 0 1.00177 4
2228 2 7.4 -7.2 0 0 0 0 1.00164 4
2229 2 7.6 -7.2 0 0 0 0 1.00159 4
2278 2 7.4 -7 0 0 0 0 1.00171 4
2279 2 7.6 -7 0 0 0 0 1.00166 4
2230 2 7.8 -7.2 0 0 0 0 1.00163 4
2231 2 8 -7.2 0 0 0 0 1.00157 4
2280 2 7.8 -7 0 0 0 0 1.00167 4
2281 2 8 -7 0 0 0 0 1.00163 4
2232 2 8.2 -7.2 0 0 0 0 1.00152 4
2233 2 8.4 -7.2 0 0 0 0 1.00153 4
2282 2 8.2 -7 0 0 0 0 1.00158 4
2283 2 8.4 -7 0 0 0 0 1.00157 4
2234 2 8.6 -7.2 0 0 0 0 1.00145 4
2235 2 8.8 -7.2 0 0 0 0 1.00138 4
2284 2 8.6 -7 0 0 0 0 1.00151 4
2285 2 8.8 -7 0 0 0 0 1.00146 4
2236 2 9 -7.2 0 0 0 0 1.00145 4
2237 2 9.2 -7.2 0 0 0 0 1.00142 4
2286 2 9 -7 0 0 0 0 1.0015 4
2287 2 9.2 -7 0 0 0 0 1.00146 4
2238 2 9.4 -7.2 0 0 0 0 1.0014 4
2239 2 9.6 -7.2 0 0 0 0 1.00142 4
2288 2 9.4 -7 0 0 0 0 1.00144 4
2289 2 9.6 -7 0 0 0 0 1.00145 4
2240 2 9.8 -7.2 0 0 0 0 1.00143 4
2290 2 9.8 -7 0 0 0 0 1.00143 4
2241 2 10 -7.2 0 0 0 0 1.00133 4
2291 2 10 -7 0 0 0 0 1.00136 4
2242 2 10.2 -7.2 0 0 0 0 1.00128 4
2292 2 10.2 -7 0 0 0 0 1.00132 4
2243 2 10.4 -7.2 0 0 0 0 1.00126 4
2293 2 10.4 -7 0 0 0 0 1.00129 4
2244 2 10.6 -7.2 0 0 0 0 1.00123 4
2294 2 10.6 -7 0 0 0 0 1.00125 4
2245 2 10.8 -7.2 0 0 0 0 1.00123 4
2295 2 10.8 -7 0 0 0 0 1.00125 4
15703 1 0.953613 -6.75746 0.02 0 0 0 1 1
15704 1 1.16339 -6.75211 0.02 0 0 0 1 1
15705 1 0.920092 -6.56601 0.02 0 0 0 1 1
15706 1 1.11372 -6.56694 0.02 0 0 0 1 1
15707 1 1.31015 -6.56434 0.02 0 0 0 1 1
15708 1 1.37119 -6.74445 0.02 0 0 0 1 1
15709 1 1.57388 -6.74367 0.02 0 0 0 1.00003 1
15710 1 1.51281 -6.56357 0.02 0 0 0 1 1
15711 1 1.72389 -6.57858 0.02 0 0 0 1.00001 1
15712 1 1.77492 -6.76853 0.02 0 0 0 1.00017 1
15713 1 1.97432 -6.73669 0.02 0 0 0 1.00006 1
15714 1 1.93003 -6.56441 0.02 0 0 0 1.00002 1
15715 1 2.16868 -6.75579 0.02 0 0 0 0.99996 1
15716 1 2.14537 -6.56583 0.02 0 0 0 0.999997 1
15717 1 2.36981 -6.74329 0.02 0 0 0 0.999979 1
15719 1 2.34457 -6.56739 0.02 0 0 0 1 1
15376 1 2.80013 -6.75913 0.02 0 0 0 0.999998 1
15718 1 2.57593 -6.78134 0.02 0 0 0 0.999998 1
15720 1 2.56378 -6.59869 0.02 0 0 0 1 1
15721 1 2.79867 -6.5886 0.02 0 0 0 0.999997 1
15377 1 3.01081 -6.77156 0.02 0 0 0 1.00001 1
15378 1 3.01604 -6.58618 0.02 0 0 0 0.999998 1
15379 1 3.21486 -6.73708 0.02 0 0 0 1.00001 1
15381 1 3.21631 -6.55603 0.02 0 0 0 0.999999 1
15380 1 3.40844 -6.73668 0.02 0 0 0 0.999985 1
15382 1 3.41381 -6.55449 0.02 0 0 0 1 1
15383 1 3.60058 -6.76418 0.02 0 0 0 1.00001 1
15385 1 3.61057 -6.56259 0.02 0 0 0 1 1
15384 1 3.78786 -6.72592 0.02 0 0 0 1.00003 1
15386 1 3.80917 -6.54316 0.02 0 0 0 1.00004 1
15387 1 3.98073 -6.74511 0.02 0 0 0 1.00009 1
15389 1 3.99984 -6.55486 0.02 0 0 0 1.00008 1
15388 1 4.11047 -6.74994 0.012013 0.00132313 -4.57219e-05 5.31561e-05 1.01198 0
15390 1 4.14834 -6.51977 0.0165474 0.00341225 -0.000108475 3.23869e-06 1.00938 0
15391 1 4.24453 -6.6732 0.0130524 0.00238525 -4.77413e-05 3.00274e-05 1.00996 0
15393 1 4.31803 -6.48546 0.0163096 0.00395526 -2.82707e-05 2.40077e-06 1.0082 0
15392 1 4.38721 -6.69733 0.0105464 0.00148278 -9.41487e-06 4.34454e-06 1.00727 0
15394 1 4.47023 -6.41605 0.0166141 0.00386142 -5.84738e-06 1.1308e-06 1.00602 0
15396 1 4.54754 -6.57868 0.0131198 0.00229029 -2.63122e-06 -1.8148e-06 1.00521 0
14998 1 4.5329 -6.7769 0.00685094 0.000702962 6.78307e-07 -2.19789e-06 1.00567 0
14999 1 4.83213 -6.49534 0.0126225 0.00212112 -1.30359e-07 -6.08771e-06 1.00419 0
15002 1 4.68996 -6.6716 0.00910357 0.00128574 7.81961e-07 -4.40539e-06 1.00389 0
15003 1 5.03754 -6.5377 0.0102424 0.00132784 -2.05159e-07 -4.62585e-06 1.00347 0
15006 1 4.83455 -6.68835 0.00744433 0.000766247 1.34686e-06 -4.26262e-06 1.00358 0
15010 1 4.97227 -6.72843 0.0054606 0.000415461 1.04169e-06 -3.06213e-06 1.00347 0
15014 1 5.13912 -6.67888 0.00609753 0.000489895 -1.12382e-06 -2.23516e-06 1.00303 0
14653 1 5.33474 -6.57576 0.00788319 0.000759148 -3.27257e-06 -1.60008e-06 1.0029 0
14659 1 5.27438 -6.77865 0.00357883 0.000113039 -1.55568e-06 -8.37929e-07 1.00322 0
14664 1 5.46787 -6.65334 0.005668 0.000423231 -3.79891e-06 -4.59842e-07 1.00263 0
14671 1 5.59562 -6.73458 0.00367186 0.000135377 -3.12926e-06 4.04192e-07 1.00261 0
14660 1 5.76223 -6.58576 0.00625671 0.000461174 -4.25542e-06 3.10712e-07 1.00247 0
14315 1 5.95136 -6.57228 0.00605925 0.000407349 -3.56681e-06 4.6906e-07 1.00239 0
14328 1 5.78071 -6.76404 0.00293573 7.41964e-05 -2.63706e-06 5.54223e-07 1.00254 0
13991 1 5.99716 -6.74962 0.00288278 6.89206e-05 -2.0905e-06 4.93088e-07 1.00245 0
14318 1 6.13159 -6.54384 0.00614581 0.000386053 -2.79972e-06 4.45027e-07 1.00231 0
13996 1 6.1999 -6.67711 0.00381423 0.000144126 -1.70221e-06 3.67123e-07 1.00215 0
13638 1 6.33324 -6.73221 0.00277513 3.18975e-05 -1.1055e-06 2.42642e-07 1.00221 0
14322 1 6.46767 -6.54616 0.00547497 0.000300358 -1.07168e-06 2.14416e-07 1.00211 0
13276 1 6.50115 -6.73856 0.00253286 1.55888e-05 -6.72558e-07 1.3877e-07 1.00216 0
14002 1 6.64599 -6.56234 0.00495942 0.000230246 -5.06172e-07 5.23315e-08 1.00202 0
12923 1 6.69317 -6.73819 0.00241231 1.58395e-05 -2.63551e-07 4.22012e-08 1.00206 0
13631 1 6.85799 -6.54752 0.0048907 0.000203469 -8.42251e-08 -4.66734e-08 1.00194 0
12927 1 6.87979 -6.72233 0.00249406 1.46423e-05 -1.72634e-08 -1.41203e-08 1.00196 0
13634 1 7.06557 -6.53594 0.00480223 0.000184571 1.51782e-07 -1.24884e-07 1.00189 0
13642 1 7.25953 -6.52803 0.00470203 0.000161843 2.76787e-07 -1.69118e-07 1.00184 0
12585 1 7.05533 -6.72795 0.00232607 6.75788e-06 1.07564e-07 -4.77411e-08 1.00192 0
12592 1 7.23254 -6.72035 0.00232309 3.45741e-06 2.12247e-07 -1.10183e-07 1.0019 0
12248 1 7.40681 -6.71622 0.00227212 -1.08962e-06 2.91987e-07 -1.48857e-07 1.00182 0
11919 1 7.57681 -6.65704 0.00290804 3.10148e-05 3.19128e-07 -1.98775e-07 1.00167 0
11538 1 7.70418 -6.75809 0.00175661 -1.23981e-05 3.64691e-07 -1.87484e-07 1.00175 0
12934 1 7.82316 -6.57214 0.00374975 9.35008e-05 4.49687e-07 -3.606e-07 1.00167 0
12943 1 8.0229 -6.54086 0.00397642 9.82128e-05 4.60767e-07 -4.34226e-07 1.00165 0
11195 1 7.90672 -6.73318 0.00192908 -5.32849e-06 3.88596e-07 -2.35086e-07 1.00174 0
10864 1 8.10061 -6.72854 0.00190949 -1.12425e-05 3.79593e-07 -2.75095e-07 1.00166 0
12254 1 8.36603 -6.55825 0.00361125 7.3303e-05 3.82179e-07 -4.5808e-07 1.00159 0
10527 1 8.29792 -6.74398 0.00172657 -1.40984e-05 3.59364e-07 -2.8521e-07 1.00164 0
12936 1 8.20512 -6.53161 0.00397366 9.16275e-05 4.32601e-07 -4.65349e-07 1.00161 0
10538 1 8.50406 -6.73246 0.00178449 -1.54521e-05 3.10869e-07 -2.90043e-07 1.00164 0
11924 1 8.53547 -6.5369 0.00376383 6.19975e-05 3.0596e-07 -4.69577e-07 1.00157 0
12589 1 8.70289 -6.53624 0.00370296 5.18611e-05 1.98195e-07 -4.47835e-07 1.00153 0
11207 1 8.86841 -6.57011 0.00330021 4.2997e-05 1.2219e-07 -3.53996e-07 1.0015 0
10178 1 8.70883 -6.73631 0.00168692 -2.81538e-05 2.09402e-07 -2.58013e-07 1.00156 0
3116 1 8.92689 -6.783 0.00131831 -4.40712e-05 8.73902e-08 -1.65705e-07 1.00156 0
10185 1 9.05512 -6.627 0.00268087 3.77166e-05 7.26755e-08 -2.31812e-07 1.0015 0
3119 1 9.19886 -6.70736 0.00186739 -3.45145e-06 -1.34263e-08 -1.07033e-07 1.00147 0
11916 1 9.40511 -6.56297 0.00320282 4.86178e-05 -8.51309e-08 -7.35501e-08 1.00146 0
3123 1 9.37682 -6.75939 0.00141229 -1.61034e-05 -9.53093e-08 5.22092e-09 1.0015 0
3109 1 9.59994 -6.62083 0.00259622 3.68399e-05 -9.33787e-08 3.29458e-08 1.00143 0
3124 1 9.6425 -6.76853 0.00130759 -6.76998e-06 -8.17684e-08 9.69257e-08 1.00148 0
3113 1 9.83693 -6.58154 0.00293478 3.07018e-05 3.56161e-08 9.39334e-08 1.0014 0
3125 1 9.86657 -6.7334 0.00155509 7.15882e-07 -6.88597e-09 1.36918e-07 1.00142 0
3117 1 10.1588 -6.56822 0.00300931 2.60329e-05 3.65022e-07 1.11999e-07 1.00133 0
3126 1 10.0486 -6.73562 0.0015159 -2.56201e-05 1.51909e-08 1.25857e-07 1.00141 0
3121 1 10.3841 -6.56331 0.00302612 1.5381e-05 6.50986e-07 6.17637e-08 1.00131 0
3127 1 10.2473 -6.72902 0.0015559 -3.0231e-05 1.85746e-07 1.16185e-07 1.00138 0
10521 1 10.5921 -6.52892 0.00330124 5.58219e-06 9.59642e-07 -2.04917e-08 1.00126 0
3128 1 10.4461 -6.74029 0.00145062 -2.7888e-05 3.41368e-07 7.59662e-08 1.00134 0
3129 1 10.648 -6.6717 0.00201714 -1.19685e-05 7.04916e-07 1.74772e-08 1.00123 0
3131 1 10.7796 -6.76291 0.00129 -1.58566e-05 5.6354e-07 -1.71206e-08 1.00127 0
14164 1 10.3075 -0.00401895 0.0270186 -2.50639e-05 8.25957e-07 -1.28544e-06 1.00136 0
3130 1 10.9921 -6.73505 0.00146951 -1.35805e-05 7.79506e-07 -1.12268e-07 1.00127 0
10174 1 10.831 -6.53563 0.00321512 1.737e-05 1.25616e-06 -1.12188e-07 1.00124 0
15722 1 0.829409 -6.17885 0.02 0 0 0 1 1
15723 1 0.872847 -6.37417 0.02 0 0 0 1 1
15724 1 1.07087 -6.37597 0.02 0 0 0 1 1
15725 1 1.02728 -6.18372 0.02 0 0 0 1 1
15726 1 1.26925 -6.37632 0.02 0 0 0 1 1
15727 1 1.23224 -6.18814 0.02 0 0 0 1 1
15728 1 1.46902 -6.37778 0.02 0 0 0 1 1
15729 1 1.44487 -6.19283 0.02 0 0 0 1 1
15730 1 1.67033 -6.39651 0.02 0 0 0 1 1
15731 1 1.66373 -6.21069 0.02 0 0 0 1 1
15732 1 1.87255 -6.39183 0.02 0 0 0 1 1
15734 1 1.89279 -6.21688 0.02 0 0 0 1 1
15733 1 2.08293 -6.39489 0.02 0 0 0 1 1
15735 1 2.14783 -6.23392 0.02 0 0 0 1 1
15736 1 2.33572 -6.39641 0.02 0 0 0 1 1
15738 1 2.37029 -6.22574 0.02 0 0 0 1 1
15737 1 2.5538 -6.42363 0.02 0 0 0 1 1
15739 1 2.58456 -6.23943 0.02 0 0 0 1 1
15740 1 2.75843 -6.42354 0.02 0 0 0 1 1
15741 1 2.79615 -6.24453 0.02 0 0 0 1 1
15397 1 2.97558 -6.41015 0.02 0 0 0 1 1
15398 1 3.00604 -6.22782 0.02 0 0 0 1 1
15399 1 3.19562 -6.38041 0.02 0 0 0 1 1
15401 1 3.21537 -6.20093 0.02 0 0 0 1 1
15400 1 3.42724 -6.37493 0.02 0 0 0 1 1
15402 1 3.4207 -6.19124 0.02 0 0 0 1 1
15403 1 3.6366 -6.37295 0.02 0 0 0 1.00001 1
15405 1 3.63218 -6.18503 0.02 0 0 0 1.00001 1
15404 1 3.83582 -6.35256 0.02 0 0 0 1.00005 1
15406 1 3.83515 -6.15959 0.02 0 0 0 1.00005 1
15407 1 4.01358 -6.35572 0.0174583 0.00175529 -2.15154e-05 1.95115e-05 1.00638 0
15409 1 4.01863 -6.15944 0.0177044 0.00222562 9.76688e-07 3.74873e-07 1.00618 0
15408 1 4.18473 -6.322 0.0171075 0.00387188 -3.98348e-06 8.13485e-06 1.00775 0
15410 1 4.19365 -6.12501 0.0177802 0.00394127 1.30221e-05 3.49633e-06 1.00668 0
15411 1 4.35346 -6.26286 0.0180041 0.00463569 -3.74025e-06 2.69397e-06 1.00638 0
15413 1 4.37386 -6.07476 0.0186884 0.00481606 4.00963e-06 2.45243e-06 1.0056 0
15412 1 4.53665 -6.22812 0.0179799 0.00458151 -4.85538e-06 -6.77735e-08 1.00516 0
15414 1 4.54599 -6.00936 0.0189644 0.00507489 -1.00145e-06 7.94719e-07 1.00472 0
15395 1 4.65023 -6.41824 0.0154272 0.00321838 -2.33931e-06 -4.01114e-06 1.00492 0
15000 1 4.77053 -6.29966 0.0161707 0.00362036 -1.94961e-06 -4.63177e-06 1.00455 0
15415 1 4.68975 -6.13359 0.0180503 0.00462852 -2.72933e-06 -2.34236e-06 1.00458 0