ITEM: TIMESTEP
29000
ITEM: NUMBER OF ATOMS
11003
ITEM: BOX BOUNDS ff ff pp
0.0000000000000000e+00 2.2000000000000000e+01
-1.0000000000000000e+01 1.0000000000000000e+01
-2.0000000000000000e-02 2.0000000000000000e-02
ITEM: ATOMS id type x y vx vy fx fy c_den c_phase
1501 2 2 -10 0 0 0 0 1 5
1551 2 2 -9.8 0 0 0 0 1 5
1601 2 2 -9.6 0 0 0 0 1 5
1502 2 2.2 -10 0 0 0 0 1 5
1503 2 2.4 -10 0 0 0 0 1 5
1552 2 2.2 -9.8 0 0 0 0 1 5
1553 2 2.4 -9.8 0 0 0 0 1 5
1602 2 2.2 -9.6 0 0 0 0 1 5
1603 2 2.4 -9.6 0 0 0 0 1 5
1504 2 2.6 -10 0 0 0 0 1 5
1505 2 2.8 -10 0 0 0 0 1 5
1554 2 2.6 -9.8 0 0 0 0 1 5
1555 2 2.8 -9.8 0 0 0 0 1 5
1604 2 2.6 -9.6 0 0 0 0 1 5
1605 2 2.8 -9.6 0 0 0 0 1 5
1506 2 3 -10 0 0 0 0 1 5
1507 2 3.2 -10 0 0 0 0 1 5
1556 2 3 -9.8 0 0 0 0 1 5
1557 2 3.2 -9.8 0 0 0 0 1 5
1606 2 3 -9.6 0 0 0 0 1 5
1607 2 3.2 -9.6 0 0 0 0 1 5
1508 2 3.4 -10 0 0 0 0 1 5
1509 2 3.6 -10 0 0 0 0 1 5
1558 2 3.4 -9.8 0 0 0 0 1 5
1559 2 3.6 -9.8 0 0 0 0 1 5
1608 2 3.4 -9.6 0 0 0 0 1 5
1609 2 3.6 -9.6 0 0 0 0 1 5
1510 2 3.8 -10 0 0 0 0 1 5
1560 2 3.8 -9.8 0 0 0 0 1 5
1610 2 3.8 -9.6 0 0 0 0 1 5
1511 2 4 -10 0 0 0 0 1 5
1561 2 4 -9.8 0 0 0 0 1 5
1611 2 4 -9.6 0 0 0 0 1 5
1512 2 4.2 -10 0 0 0 0 1 5
1562 2 4.2 -9.8 0 0 0 0 1 5
1612 2 4.2 -9.6 0 0 0 0 1 5
1513 2 4.4 -10 0 0 0 0 1 5
1514 2 4.6 -10 0 0 0 0 1 5
1563 2 4.4 -9.8 0 0 0 0 1 5
1564 2 4.6 -9.8 0 0 0 0 1 5
1613 2 4.4 -9.6 0 0 0 0 1 5
1614 2 4.6 -9.6 0 0 0 0 1 5
1515 2 4.8 -10 0 0 0 0 1 5
1516 2 5 -10 0 0 0 0 1 5
1565 2 4.8 -9.8 0 0 0 0 1 5
1566 2 5 -9.8 0 0 0 0 1 5
1615 2 4.8 -9.6 0 0 0 0 1 5
1616 2 5 -9.6 0 0 0 0 1 5
1517 2 5.2 -10 0 0 0 0 1 5
1518 2 5.4 -10 0 0 0 0 1 5
1567 2 5.2 -9.8 0 0 0 0 1 5
1568 2 5.4 -9.8 0 0 0 0 1 5
1617 2 5.2 -9.6 0 0 0 0 1 5
1618 2 5.4 -9.6 0 0 0 0 1 5
1519 2 5.6 -10 0 0 0 0 1 5
1520 2 5.8 -10 0 0 0 0 1 5
1569 2 5.6 -9.8 0 0 0 0 1 5
1570 2 5.8 -9.8 0 0 0 0 1 5
1619 2 5.6 -9.6 0 0 0 0 1 5
1620 2 5.8 -9.6 0 0 0 0 1 5
1521 2 6 -10 0 0 0 0 1 5
1522 2 6.2 -10 0 0 0 0 1 5
1571 2 6 -9.8 0 0 0 0 1 5
1572 2 6.2 -9.8 0 0 0 0 1 5
1621 2 6 -9.6 0 0 0 0 1 5
1622 2 6.2 -9.6 0 0 0 0 1 5
1523 2 6.4 -10 0 0 0 0 1 5
1524 2 6.6 -10 0 0 0 0 1 5
1573 2 6.4 -9.8 0 0 0 0 1 5
1574 2 6.6 -9.8 0 0 0 0 1 5
1623 2 6.4 -9.6 0 0 0 0 1 5
1624 2 6.6 -9.6 0 0 0 0 1 5
1525 2 6.8 -10 0 0 0 0 1 5
1526 2 7 -10 0 0 0 0 1 5
1575 2 6.8 -9.8 0 0 0 0 1 5
1576 2 7 -9.8 0 0 0 0 1 5
1625 2 6.8 -9.6 0 0 0 0 1 5
1626 2 7 -9.6 0 0 0 0 1 5
1527 2 7.2 -10 0 0 0 0 1 5
1577 2 7.2 -9.8 0 0 0 0 1 5
1627 2 7.2 -9.6 0 0 0 0 1 5
1528 2 7.4 -10 0 0 0 0 1 5
1529 2 7.6 -10 0 0 0 0 1 5
1578 2 7.4 -9.8 0 0 0 0 1 5
1579 2 7.6 -9.8 0 0 0 0 1 5
1628 2 7.4 -9.6 0 0 0 0 1 5
1629 2 7.6 -9.6 0 0 0 0 1 5
1530 2 7.8 -10 0 0 0 0 1 5
1531 2 8 -10 0 0 0 0 1 5
1580 2 7.8 -9.8 0 0 0 0 1 5
1581 2 8 -9.8 0 0 0 0 1 5
1630 2 7.8 -9.6 0 0 0 0 1 5
1631 2 8 -9.6 0 0 0 0 1 5
1532 2 8.2 -10 0 0 0 0 1 5
1533 2 8.4 -10 0 0 0 0 1 5
1582 2 8.2 -9.8 0 0 0 0 1 5
1583 2 8.4 -9.8 0 0 0 0 1 5
1632 2 8.2 -9.6 0 0 0 0 1 5
1633 2 8.4 -9.6 0 0 0 0 1 5
1534 2 8.6 -10 0 0 0 0 1 5
1535 2 8.8 -10 0 0 0 0 1 5
1584 2 8.6 -9.8 0 0 0 0 1 5
1585 2 8.8 -9.8 0 0 0 0 1 5
1634 2 8.6 -9.6 0 0 0 0 1 5
1635 2 8.8 -9.6 0 0 0 0 1 5
1536 2 9 -10 0 0 0 0 1 5
1537 2 9.2 -10 0 0 0 0 1 5
1586 2 9 -9.8 0 0 0 0 1 5
1587 2 9.2 -9.8 0 0 0 0 1 5
1636 2 9 -9.6 0 0 0 0 1 5
1637 2 9.2 -9.6 0 0 0 0 1 5
1538 2 9.4 -10 0 0 0 0 1 5
1539 2 9.6 -10 0 0 0 0 1 5
1588 2 9.4 -9.8 0 0 0 0 1 5
1589 2 9.6 -9.8 0 0 0 0 1 5
1638 2 9.4 -9.6 0 0 0 0 1 5
1639 2 9.6 -9.6 0 0 0 0 1 5
1540 2 9.8 -10 0 0 0 0 1 5
1590 2 9.8 -9.8 0 0 0 0 1 5
1640 2 9.8 -9.6 0 0 0 0 1 5
1541 2 10 -10 0 0 0 0 1 5
1591 2 10 -9.8 0 0 0 0 1 5
1641 2 10 -9.6 0 0 0 0 1 5
1542 2 10.2 -10 0 0 0 0 1 5
1592 2 10.2 -9.8 0 0 0 0 1 5
1642 2 10.2 -9.6 0 0 0 0 1 5
1543 2 10.4 -10 0 0 0 0 1 5
1593 2 10.4 -9.8 0 0 0 0 1 5
1643 2 10.4 -9.6 0 0 0 0 1 5
1544 2 10.6 -10 0 0 0 0 1 5
1594 2 10.6 -9.8 0 0 0 0 1 5
1644 2 10.6 -9.6 0 0 0 0 1 5
1545 2 10.8 -10 0 0 0 0 1 5
1595 2 10.8 -9.8 0 0 0 0 1 5
1645 2 10.8 -9.6 0 0 0 0 1 5
1651 2 2 -9.4 0 0 0 0 1 5
1701 2 2 -9.2 0 0 0 0 1 5
1652 2 2.2 -9.4 0 0 0 0 1 5
1653 2 2.4 -9.4 0 0 0 0 1 5
1702 2 2.2 -9.2 0 0 0 0 1 5
1703 2 2.4 -9.2 0 0 0 0 1 5
1654 2 2.6 -9.4 0 0 0 0 1 5
1655 2 2.8 -9.4 0 0 0 0 1 5
1704 2 2.6 -9.2 0 0 0 0 1 5
1705 2 2.8 -9.2 0 0 0 0 1 5
1656 2 3 -9.4 0 0 0 0 1 5
1657 2 3.2 -9.4 0 0 0 0 1 5
1706 2 3 -9.2 0 0 0 0 1 5
1707 2 3.2 -9.2 0 0 0 0 1 5
1658 2 3.4 -9.4 0 0 0 0 1 5
1659 2 3.6 -9.4 0 0 0 0 1 5
1708 2 3.4 -9.2 0 0 0 0 1 5
1709 2 3.6 -9.2 0 0 0 0 1 5
1660 2 3.8 -9.4 0 0 0 0 1 5
1710 2 3.8 -9.2 0 0 0 0 1 5
1661 2 4 -9.4 0 0 0 0 1 5
1711 2 4 -9.2 0 0 0 0 1 5
1662 2 4.2 -9.4 0 0 0 0 1 5
1712 2 4.2 -9.2 0 0 0 0 1 5
1663 2 4.4 -9.4 0 0 0 0 1 5
1664 2 4.6 -9.4 0 0 0 0 1 5
1713 2 4.4 -9.2 0 0 0 0 1 5
1714 2 4.6 -9.2 0 0 0 0 1 5
1665 2 4.8 -9.4 0 0 0 0 1 5
1666 2 5 -9.4 0 0 0 0 1 5
1715 2 4.8 -9.2 0 0 0 0 1 5
1716 2 5 -9.2 0 0 0 0 1 5
1667 2 5.2 -9.4 0 0 0 0 1 5
1668 2 5.4 -9.4 0 0 0 0 1 5
1717 2 5.2 -9.2 0 0 0 0 1 5
1718 2 5.4 -9.2 0 0 0 0 1 5
1669 2 5.6 -9.4 0 0 0 0 1 5
1670 2 5.8 -9.4 0 0 0 0 1 5
1719 2 5.6 -9.2 0 0 0 0 1 5
1720 2 5.8 -9.2 0 0 0 0 1 5
1671 2 6 -9.4 0 0 0 0 1 5
1672 2 6.2 -9.4 0 0 0 0 1 5
1721 2 6 -9.2 0 0 0 0 1 5
1722 2 6.2 -9.2 0 0 0 0 1 5
1673 2 6.4 -9.4 0 0 0 0 1 5
1674 2 6.6 -9.4 0 0 0 0 1 5
1723 2 6.4 -9.2 0 0 0 0 1 5
1724 2 6.6 -9.2 0 0 0 0 1 5
1675 2 6.8 -9.4 0 0 0 0 1 5
1676 2 7 -9.4 0 0 0 0 1 5
1725 2 6.8 -9.2 0 0 0 0 1 5
1726 2 7 -9.2 0 0 0 0 1 5
1677 2 7.2 -9.4 0 0 0 0 1 5
1727 2 7.2 -9.2 0 0 0 0 1 5
1678 2 7.4 -9.4 0 0 0 0 1 5
1679 2 7.6 -9.4 0 0 0 0 1 5
1728 2 7.4 -9.2 0 0 0 0 1 5
1729 2 7.6 -9.2 0 0 0 0 1 5
1680 2 7.8 -9.4 0 0 0 0 1 5
1681 2 8 -9.4 0 0 0 0 1 5
1730 2 7.8 -9.2 0 0 0 0 1 5
1731 2 8 -9.2 0 0 0 0 1 5
1682 2 8.2 -9.4 0 0 0 0 1 5
1683 2 8.4 -9.4 0 0 0 0 1 5
1732 2 8.2 -9.2 0 0 0 0 1 5
1733 2 8.4 -9.2 0 0 0 0 1 5
1684 2 8.6 -9.4 0 0 0 0 1 5
1685 2 8.8 -9.4 0 0 0 0 1 5
1734 2 8.6 -9.2 0 0 0 0 1 5
1735 2 8.8 -9.2 0 0 0 0 1 5
1686 2 9 -9.4 0 0 0 0 1 5
1687 2 9.2 -9.4 0 0 0 0 1 5
1736 2 9 -9.2 0 0 0 0 1 5
1737 2 9.2 -9.2 0 0 0 0 1 5
1688 2 9.4 -9.4 0 0 0 0 1 5
1689 2 9.6 -9.4 0 0 0 0 1 5
1738 2 9.4 -9.2 0 0 0 0 1 5
1739 2 9.6 -9.2 0 0 0 0 1 5
1690 2 9.8 -9.4 0 0 0 0 1 5
1740 2 9.8 -9.2 0 0 0 0 1 5
1691 2 10 -9.4 0 0 0 0 1 5
1741 2 10 -9.2 0 0 0 0 1 5
1692 2 10.2 -9.4 0 0 0 0 1 5
1742 2 10.2 -9.2 0 0 0 0 1 5
1693 2 10.4 -9.4 0 0 0 0 1 5
1743 2 10.4 -9.2 0 0 0 0 1 5
1694 2 10.6 -9.4 0 0 0 0 1 5
1744 2 10.6 -9.2 0 0 0 0 1 5
1695 2 10.8 -9.4 0 0 0 0 1 5
1745 2 10.8 -9.2 0 0 0 0 1 5
1751 2 2 -9 0 0 0 0 1 5
1801 2 2 -8.8 0 0 0 0 1 5
1752 2 2.2 -9 0 0 0 0 1 5
1753 2 2.4 -9 0 0 0 0 1 5
1802 2 2.2 -8.8 0 0 0 0 1 5
1803 2 2.4 -8.8 0 0 0 0 1 5
1754 2 2.6 -9 0 0 0 0 1 5
1755 2 2.8 -9 0 0 0 0 1 5
1804 2 2.6 -8.8 0 0 0 0 1 5
1805 2 2.8 -8.8 0 0 0 0 1 5
1756 2 3 -9 0 0 0 0 1 5
1757 2 3.2 -9 0 0 0 0 1 5
1806 2 3 -8.8 0 0 0 0 1 5
1807 2 3.2 -8.8 0 0 0 0 1 5
1758 2 3.4 -9 0 0 0 0 1 5
1759 2 3.6 -9 0 0 0 0 1 5
1808 2 3.4 -8.8 0 0 0 0 1 5
1809 2 3.6 -8.8 0 0 0 0 1 5
1760 2 3.8 -9 0 0 0 0 1 5
1810 2 3.8 -8.8 0 0 0 0 1 5
1761 2 4 -9 0 0 0 0 1 5
1811 2 4 -8.8 0 0 0 0 1 5
1762 2 4.2 -9 0 0 0 0 1 5
1812 2 4.2 -8.8 0 0 0 0 1 5
1763 2 4.4 -9 0 0 0 0 1 5
1764 2 4.6 -9 0 0 0 0 1 5
1813 2 4.4 -8.8 0 0 0 0 1 5
1814 2 4.6 -8.8 0 0 0 0 1 5
1765 2 4.8 -9 0 0 0 0 1 5
1766 2 5 -9 0 0 0 0 1 5
1815 2 4.8 -8.8 0 0 0 0 1 5
1816 2 5 -8.8 0 0 0 0 1 5
1767 2 5.2 -9 0 0 0 0 1 5
1768 2 5.4 -9 0 0 0 0 1 5
1817 2 5.2 -8.8 0 0 0 0 1 5
1818 2 5.4 -8.8 0 0 0 0 1 5
1769 2 5.6 -9 0 0 0 0 1 5
1770 2 5.8 -9 0 0 0 0 1 5
1819 2 5.6 -8.8 0 0 0 0 1 5
1820 2 5.8 -8.8 0 0 0 0 1 5
1771 2 6 -9 0 0 0 0 1 5
1772 2 6.2 -9 0 0 0 0 1 5
1821 2 6 -8.8 0 0 0 0 1 5
1822 2 6.2 -8.8 0 0 0 0 1 5
1773 2 6.4 -9 0 0 0 0 1 5
1774 2 6.6 -9 0 0 0 0 1 5
1823 2 6.4 -8.8 0 0 0 0 1 5
1824 2 6.6 -8.8 0 0 0 0 1 5
1775 2 6.8 -9 0 0 0 0 1 5
1776 2 7 -9 0 0 0 0 1 5
1825 2 6.8 -8.8 0 0 0 0 1 5
1826 2 7 -8.8 0 0 0 0 1 5
1777 2 7.2 -9 0 0 0 0 1 5
1827 2 7.2 -8.8 0 0 0 0 1 5
1778 2 7.4 -9 0 0 0 0 1 5
1779 2 7.6 -9 0 0 0 0 1 5
1828 2 7.4 -8.8 0 0 0 0 1 5
1829 2 7.6 -8.8 0 0 0 0 1 5
1780 2 7.8 -9 0 0 0 0 1 5
1781 2 8 -9 0 0 0 0 1 5
1830 2 7.8 -8.8 0 0 0 0 1 5
1831 2 8 -8.8 0 0 0 0 1 5
1782 2 8.2 -9 0 0 0 0 1 5
1783 2 8.4 -9 0 0 0 0 1 5
1832 2 8.2 -8.8 0 0 0 0 1 5
1833 2 8.4 -8.8 0 0 0 0 1 5
1784 2 8.6 -9 0 0 0 0 1 5
1785 2 8.8 -9 0 0 0 0 1 5
1834 2 8.6 -8.8 0 0 0 0 1 5
1835 2 8.8 -8.8 0 0 0 0 1 5
1786 2 9 -9 0 0 0 0 1 5
1787 2 9.2 -9 0 0 0 0 1 5
1836 2 9 -8.8 0 0 0 0 1 5
1837 2 9.2 -8.8 0 0 0 0 1 5
1788 2 9.4 -9 0 0 0 0 1 5
1789 2 9.6 -9 0 0 0 0 1 5
1838 2 9.4 -8.8 0 0 0 0 1 5
1839 2 9.6 -8.8 0 0 0 0 1 5
1790 2 9.8 -9 0 0 0 0 1 5
1840 2 9.8 -8.8 0 0 0 0 1 5
1791 2 10 -9 0 0 0 0 1 5
1841 2 10 -8.8 0 0 0 0 1 5
1792 2 10.2 -9 0 0 0 0 1 5
1842 2 10.2 -8.8 0 0 0 0 1 5
1793 2 10.4 -9 0 0 0 0 1 5
1843 2 10.4 -8.8 0 0 0 0 1 5
1794 2 10.6 -9 0 0 0 0 1 5
1844 2 10.6 -8.8 0 0 0 0 1 5
1795 2 10.8 -9 0 0 0 0 1 5
1845 2 10.8 -8.8 0 0 0 0 1 5
1851 2 2 -8.6 0 0 0 0 1 5
1901 2 2 -8.4 0 0 0 0 1 5
1852 2 2.2 -8.6 0 0 0 0 1 5
1853 2 2.4 -8.6 0 0 0 0 1 5
1902 2 2.2 -8.4 0 0 0 0 1 5
1903 2 2.4 -8.4 0 0 0 0 1 5
1854 2 2.6 -8.6 0 0 0 0 1 5
1855 2 2.8 -8.6 0 0 0 0 1 5
1904 2 2.6 -8.4 0 0 0 0 1 5
1905 2 2.8 -8.4 0 0 0 0 1 5
1856 2 3 -8.6 0 0 0 0 1 5
1857 2 3.2 -8.6 0 0 0 0 1 5
1906 2 3 -8.4 0 0 0 0 1 5
1907 2 3.2 -8.4 0 0 0 0 1 5
1858 2 3.4 -8.6 0 0 0 0 1 5
1859 2 3.6 -8.6 0 0 0 0 1 5
1908 2 3.4 -8.4 0 0 0 0 1 5
1909 2 3.6 -8.4 0 0 0 0 1 5
1860 2 3.8 -8.6 0 0 0 0 1 5
1910 2 3.8 -8.4 0 0 0 0 1 5
1861 2 4 -8.6 0 0 0 0 1 5
1911 2 4 -8.4 0 0 0 0 1 5
1862 2 4.2 -8.6 0 0 0 0 1 5
1912 2 4.2 -8.4 0 0 0 0 1 5
1863 2 4.4 -8.6 0 0 0 0 1 5
1864 2 4.6 -8.6 0 0 0 0 1 5
1913 2 4.4 -8.4 0 0 0 0 1 5
1914 2 4.6 -8.4 0 0 0 0 1 5
1865 2 4.8 -8.6 0 0 0 0 1 5
1866 2 5 -8.6 0 0 0 0 1 5
1915 2 4.8 -8.4 0 0 0 0 1 5
1916 2 5 -8.4 0 0 0 0 1 5
1867 2 5.2 -8.6 0 0 0 0 1 5
1868 2 5.4 -8.6 0 0 0 0 1 5
1917 2 5.2 -8.4 0 0 0 0 1 5
1918 2 5.4 -8.4 0 0 0 0 1 5
1869 2 5.6 -8.6 0 0 0 0 1 5
1870 2 5.8 -8.6 0 0 0 0 1 5
1919 2 5.6 -8.4 0 0 0 0 1 5
1920 2 5.8 -8.4 0 0 0 0 1 5
1871 2 6 -8.6 0 0 0 0 1 5
1872 2 6.2 -8.6 0 0 0 0 1 5
1921 2 6 -8.4 0 0 0 0 1 5
1922 2 6.2 -8.4 0 0 0 0 1 5
1873 2 6.4 -8.6 0 0 0 0 1 5
1874 2 6.6 -8.6 0 0 0 0 1 5
1923 2 6.4 -8.4 0 0 0 0 1 5
1924 2 6.6 -8.4 0 0 0 0 1 5
1875 2 6.8 -8.6 0 0 0 0 1 5
1876 2 7 -8.6 0 0 0 0 1 5
1925 2 6.8 -8.4 0 0 0 0 1 5
1926 2 7 -8.4 0 0 0 0 1 5
1877 2 7.2 -8.6 0 0 0 0 1 5
1927 2 7.2 -8.4 0 0 0 0 1 5
1878 2 7.4 -8.6 0 0 0 0 1 5
1879 2 7.6 -8.6 0 0 0 0 1 5
1928 2 7.4 -8.4 0 0 0 0 1 5
1929 2 7.6 -8.4 0 0 0 0 1 5
1880 2 7.8 -8.6 0 0 0 0 1 5
1881 2 8 -8.6 0 0 0 0 1 5
1930 2 7.8 -8.4 0 0 0 0 1 5
1931 2 8 -8.4 0 0 0 0 1 5
1882 2 8.2 -8.6 0 0 0 0 1 5
1883 2 8.4 -8.6 0 0 0 0 1 5
1932 2 8.2 -8.4 0 0 0 0 1 5
1933 2 8.4 -8.4 0 0 0 0 1 5
1884 2 8.6 -8.6 0 0 0 0 1 5
1885 2 8.8 -8.6 0 0 0 0 1 5
1934 2 8.6 -8.4 0 0 0 0 1 5
1935 2 8.8 -8.4 0 0 0 0 1 5
1886 2 9 -8.6 0 0 0 0 1 5
1887 2 9.2 -8.6 0 0 0 0 1 5
1936 2 9 -8.4 0 0 0 0 1 5
1937 2 9.2 -8.4 0 0 0 0 1 5
1888 2 9.4 -8.6 0 0 0 0 1 5
1889 2 9.6 -8.6 0 0 0 0 1 5
1938 2 9.4 -8.4 0 0 0 0 1 5
1939 2 9.6 -8.4 0 0 0 0 1 5
1890 2 9.8 -8.6 0 0 0 0 1 5
1940 2 9.8 -8.4 0 0 0 0 1 5
1891 2 10 -8.6 0 0 0 0 1 5
1941 2 10 -8.4 0 0 0 0 1 5
1892 2 10.2 -8.6 0 0 0 0 1 5
1942 2 10.2 -8.4 0 0 0 0 1 5
1893 2 10.4 -8.6 0 0 0 0 1 5
1943 2 10.4 -8.4 0 0 0 0 1 5
1894 2 10.6 -8.6 0 0 0 0 1 5
1944 2 10.6 -8.4 0 0 0 0 1 5
1895 2 10.8 -8.6 0 0 0 0 1 5
1945 2 10.8 -8.4 0 0 0 0 1 5
1951 2 2 -8.2 0 0 0 0 1 5
2001 2 2 -8 0 0 0 0 1 5
1952 2 2.2 -8.2 0 0 0 0 1 5
1953 2 2.4 -8.2 0 0 0 0 1 5
2002 2 2.2 -8 0 0 0 0 1 5
2003 2 2.4 -8 0 0 0 0 1 5
1954 2 2.6 -8.2 0 0 0 0 1 5
1955 2 2.8 -8.2 0 0 0 0 1 5
2004 2 2.6 -8 0 0 0 0 1 5
2005 2 2.8 -8 0 0 0 0 1 5
1956 2 3 -8.2 0 0 0 0 1 5
1957 2 3.2 -8.2 0 0 0 0 1 5
2006 2 3 -8 0 0 0 0 1 5
2007 2 3.2 -8 0 0 0 0 1 5
1958 2 3.4 -8.2 0 0 0 0 1 5
1959 2 3.6 -8.2 0 0 0 0 1 5
2008 2 3.4 -8 0 0 0 0 1 5
2009 2 3.6 -8 0 0 0 0 1 5
1960 2 3.8 -8.2 0 0 0 0 1 5
2010 2 3.8 -8 0 0 0 0 1 5
1961 2 4 -8.2 0 0 0 0 1 5
2011 2 4 -8 0 0 0 0 1 5
1962 2 4.2 -8.2 0 0 0 0 1 5
2012 2 4.2 -8 0 0 0 0 1 5
1963 2 4.4 -8.2 0 0 0 0 1 5
1964 2 4.6 -8.2 0 0 0 0 1 5
2013 2 4.4 -8 0 0 0 0 1 5
2014 2 4.6 -8 0 0 0 0 1 5
1965 2 4.8 -8.2 0 0 0 0 1 5
1966 2 5 -8.2 0 0 0 0 1 5
2015 2 4.8 -8 0 0 0 0 1 5
2016 2 5 -8 0 0 0 0 1 5
1967 2 5.2 -8.2 0 0 0 0 1 5
1968 2 5.4 -8.2 0 0 0 0 1 5
2017 2 5.2 -8 0 0 0 0 1 5
2018 2 5.4 -8 0 0 0 0 1 5
1969 2 5.6 -8.2 0 0 0 0 1 5
1970 2 5.8 -8.2 0 0 0 0 1 5
2019 2 5.6 -8 0 0 0 0 1 5
2020 2 5.8 -8 0 0 0 0 1 5
1971 2 6 -8.2 0 0 0 0 1 5
1972 2 6.2 -8.2 0 0 0 0 1 5
2021 2 6 -8 0 0 0 0 1 5
2022 2 6.2 -8 0 0 0 0 1 5
1973 2 6.4 -8.2 0 0 0 0 1 5
1974 2 6.6 -8.2 0 0 0 0 1 5
2023 2 6.4 -8 0 0 0 0 1 5
2024 2 6.6 -8 0 0 0 0 1 5
1975 2 6.8 -8.2 0 0 0 0 1 5
1976 2 7 -8.2 0 0 0 0 1 5
2025 2 6.8 -8 0 0 0 0 1 5
2026 2 7 -8 0 0 0 0 1 5
1977 2 7.2 -8.2 0 0 0 0 1 5
2027 2 7.2 -8 0 0 0 0 1 5
1978 2 7.4 -8.2 0 0 0 0 1 5
1979 2 7.6 -8.2 0 0 0 0 1 5
2028 2 7.4 -8 0 0 0 0 1 5
2029 2 7.6 -8 0 0 0 0 1 5
1980 2 7.8 -8.2 0 0 0 0 1 5
1981 2 8 -8.2 0 0 0 0 1 5
2030 2 7.8 -8 0 0 0 0 1 5
2031 2 8 -8 0 0 0 0 1 5
1982 2 8.2 -8.2 0 0 0 0 1 5
1983 2 8.4 -8.2 0 0 0 0 1 5
2032 2 8.2 -8 0 0 0 0 1 5
2033 2 8.4 -8 0 0 0 0 1 5
1984 2 8.6 -8.2 0 0 0 0 1 5
1985 2 8.8 -8.2 0 0 0 0 1 5
2034 2 8.6 -8 0 0 0 0 1 5
2035 2 8.8 -8 0 0 0 0 1 5
1986 2 9 -8.2 0 0 0 0 1 5
1987 2 9.2 -8.2 0 0 0 0 1 5
2036 2 9 -8 0 0 0 0 1 5
2037 2 9.2 -8 0 0 0 0 1 5
1988 2 9.4 -8.2 0 0 0 0 1 5
1989 2 9.6 -8.2 0 0 0 0 1 5
2038 2 9.4 -8 0 0 0 0 1 5
2039 2 9.6 -8 0 0 0 0 1 5
1990 2 9.8 -8.2 0 0 0 0 1 5
2040 2 9.8 -8 0 0 0 0 1 5
1991 2 10 -8.2 0 0 0 0 1 5
2041 2 10 -8 0 0 0 0 1 5
1992 2 10.2 -8.2 0 0 0 0 1 5
2042 2 10.2 -8 0 0 0 0 1 5
1993 2 10.4 -8.2 0 0 0 0 1 5
2043 2 10.4 -8 0 0 0 0 1 5
1994 2 10.6 -8.2 0 0 0 0 1 5
2044 2 10.6 -8 0 0 0 0 1 5
1995 2 10.8 -8.2 0 0 0 0 1 5
2045 2 10.8 -8 0 0 0 0 1 5
2051 2 2 -7.8 0 0 0 0 1 5
2101 2 2 -7.6 0 0 0 0 1 5
2052 2 2.2 -7.8 0 0 0 0 1 5
2053 2 2.4 -7.8 0 0 0 0 1 5
2102 2 2.2 -7.6 0 0 0 0 1 5
2103 2 2.4 -7.6 0 0 0 0 1 5
2054 2 2.6 -7.8 0 0 0 0 1 5
2055 2 2.8 -7.8 0 0 0 0 1 5
2104 2 2.6 -7.6 0 0 0 0 1 5
2105 2 2.8 -7.6 0 0 0 0 1 5
2056 2 3 -7.8 0 0 0 0 1 5
2057 2 3.2 -7.8 0 0 0 0 1 5
2106 2 3 -7.6 0 0 0 0 1 5
2107 2 3.2 -7.6 0 0 0 0 1 5
2058 2 3.4 -7.8 0 0 0 0 1 5
2059 2 3.6 -7.8 0 0 0 0 1 5
2108 2 3.4 -7.6 0 0 0 0 1 5
2109 2 3.6 -7.6 0 0 0 0 1 5
2060 2 3.8 -7.8 0 0 0 0 1 5
2110 2 3.8 -7.6 0 0 0 0 1 5
2061 2 4 -7.8 0 0 0 0 1 5
2111 2 4 -7.6 0 0 0 0 1 5
2062 2 4.2 -7.8 0 0 0 0 1 5
2112 2 4.2 -7.6 0 0 0 0 1 5
2063 2 4.4 -7.8 0 0 0 0 1 5
2064 2 4.6 -7.8 0 0 0 0 1 5
2113 2 4.4 -7.6 0 0 0 0 1 5
2114 2 4.6 -7.6 0 0 0 0 1 5
2065 2 4.8 -7.8 0 0 0 0 1 5
2066 2 5 -7.8 0 0 0 0 1 5
2115 2 4.8 -7.6 0 0 0 0 1 5
2116 2 5 -7.6 0 0 0 0 1 5
2067 2 5.2 -7.8 0 0 0 0 1 5
2068 2 5.4 -7.8 0 0 0 0 1 5
2117 2 5.2 -7.6 0 0 0 0 1 5
2118 2 5.4 -7.6 0 0 0 0 1 5
2069 2 5.6 -7.8 0 0 0 0 1 5
2070 2 5.8 -7.8 0 0 0 0 1 5
2119 2 5.6 -7.6 0 0 0 0 1 5
2120 2 5.8 -7.6 0 0 0 0 1 5
2071 2 6 -7.8 0 0 0 0 1 5
2072 2 6.2 -7.8 0 0 0 0 1 5
2121 2 6 -7.6 0 0 0 0 1 5
2122 2 6.2 -7.6 0 0 0 0 1 5
2073 2 6.4 -7.8 0 0 0 0 1 5
2074 2 6.6 -7.8 0 0 0 0 1 5
2123 2 6.4 -7.6 0 0 0 0 1 5
2124 2 6.6 -7.6 0 0 0 0 1 5
2075 2 6.8 -7.8 0 0 0 0 1 5
2076 2 7 -7.8 0 0 0 0 1 5
2125 2 6.8 -7.6 0 0 0 0 1 5
2126 2 7 -7.6 0 0 0 0 1 5
2077 2 7.2 -7.8 0 0 0 0 1 5
2127 2 7.2 -7.6 0 0 0 0 1 5
2078 2 7.4 -7.8 0 0 0 0 1 5
2079 2 7.6 -7.8 0 0 0 0 1 5
2128 2 7.4 -7.6 0 0 0 0 1 5
2129 2 7.6 -7.6 0 0 0 0 1 5
2080 2 7.8 -7.8 0 0 0 0 1 5
2081 2 8 -7.8 0 0 0 0 1 5
2130 2 7.8 -7.6 0 0 0 0 1 5
2131 2 8 -7.6 0 0 0 0 1 5
2082 2 8.2 -7.8 0 0 0 0 1 5
2083 2 8.4 -7.8 0 0 0 0 1 5
2132 2 8.2 -7.6 0 0 0 0 1 5
2133 2 8.4 -7.6 0 0 0 0 1 5
2084 2 8.6 -7.8 0 0 0 0 1 5
2085 2 8.8 -7.8 0 0 0 0 1 5
2134 2 8.6 -7.6 0 0 0 0 1 5
2135 2 8.8 -7.6 0 0 0 0 1 5
2086 2 9 -7.8 0 0 0 0 1 5
2087 2 9.2 -7.8 0 0 0 0 1 5
2136 2 9 -7.6 0 0 0 0 1 5
2137 2 9.2 -7.6 0 0 0 0 1 5
2088 2 9.4 -7.8 0 0 0 0 1 5
2089 2 9.6 -7.8 0 0 0 0 1 5
2138 2 9.4 -7.6 0 0 0 0 1 5
2139 2 9.6 -7.6 0 0 0 0 1 5
2090 2 9.8 -7.8 0 0 0 0 1 5
2140 2 9.8 -7.6 0 0 0 0 1 5
2091 2 10 -7.8 0 0 0 0 1 5
2141 2 10 -7.6 0 0 0 0 1 5
2092 2 10.2 -7.8 0 0 0 0 1 5
2142 2 10.2 -7.6 0 0 0 0 1 5
2093 2 10.4 -7.8 0 0 0 0 1 5
2143 2 10.4 -7.6 0 0 0 0 1 5
2094 2 10.6 -7.8 0 0 0 0 1 5
2144 2 10.6 -7.6 0 0 0 0 1 5
2095 2 10.8 -7.8 0 0 0 0 1 5
2145 2 10.8 -7.6 0 0 0 0 1 5
2151 2 2 -7.4 0 0 0 0 0.992584 5
2201 2 2 -7.2 0 0 0 0 0.998134 5
2152 2 2.2 -7.4 0 0 0 0 1.00504 5
2153 2 2.4 -7.4 0 0 0 0 1.00004 5
2202 2 2.2 -7.2 0 0 0 0 1.00142 5
2203 2 2.4 -7.2 0 0 0 0 0.999455 5
2154 2 2.6 -7.4 0 0 0 0 0.991383 5
2155 2 2.8 -7.4 0 0 0 0 1 5
2204 2 2.6 -7.2 0 0 0 0 0.998508 5
2205 2 2.8 -7.2 0 0 0 0 1.00132 5
2156 2 3 -7.4 0 0 0 0 0.998865 5
2157 2 3.2 -7.4 0 0 0 0 0.999996 5
2206 2 3 -7.2 0 0 0 0 1.00011 5
2207 2 3.2 -7.2 0 0 0 0 1.00026 5
2158 2 3.4 -7.4 0 0 0 0 0.998615 5
2159 2 3.6 -7.4 0 0 0 0 1.00599 5
2208 2 3.4 -7.2 0 0 0 0 0.999418 5
2209 2 3.6 -7.2 0 0 0 0 1.00214 5
2160 2 3.8 -7.4 0 0 0 0 1.00205 5
2210 2 3.8 -7.2 0 0 0 0 1.00646 5
2161 2 4 -7.4 0 0 0 0 1.02385 5
2211 2 4 -7.2 0 0 0 0 1.01539 5
2162 2 4.2 -7.4 0 0 0 0 1.02729 5
2212 2 4.2 -7.2 0 0 0 0 1.02451 5
2163 2 4.4 -7.4 0 0 0 0 1.02693 5
2164 2 4.6 -7.4 0 0 0 0 1.02135 5
2213 2 4.4 -7.2 0 0 0 0 1.02656 5
2214 2 4.6 -7.2 0 0 0 0 1.02217 5
2165 2 4.8 -7.4 0 0 0 0 1.02073 5
2166 2 5 -7.4 0 0 0 0 1.02044 5
2215 2 4.8 -7.2 0 0 0 0 1.02112 5
2216 2 5 -7.2 0 0 0 0 1.021 5
2167 2 5.2 -7.4 0 0 0 0 1.02038 5
2168 2 5.4 -7.4 0 0 0 0 1.02037 5
2217 2 5.2 -7.2 0 0 0 0 1.02092 5
2218 2 5.4 -7.2 0 0 0 0 1.02083 5
2169 2 5.6 -7.4 0 0 0 0 1.02031 5
2170 2 5.8 -7.4 0 0 0 0 1.02002 5
2219 2 5.6 -7.2 0 0 0 0 1.0206 5
2220 2 5.8 -7.2 0 0 0 0 1.02039 5
2171 2 6 -7.4 0 0 0 0 1.01999 5
2172 2 6.2 -7.4 0 0 0 0 1.01995 5
2221 2 6 -7.2 0 0 0 0 1.02035 5
2222 2 6.2 -7.2 0 0 0 0 1.02024 5
2173 2 6.4 -7.4 0 0 0 0 1.0199 5
2174 2 6.6 -7.4 0 0 0 0 1.01988 5
2223 2 6.4 -7.2 0 0 0 0 1.02017 5
2224 2 6.6 -7.2 0 0 0 0 1.0201 5
2175 2 6.8 -7.4 0 0 0 0 1.01951 5
2176 2 7 -7.4 0 0 0 0 1.01957 5
2225 2 6.8 -7.2 0 0 0 0 1.01995 5
2226 2 7 -7.2 0 0 0 0 1.01995 5
2177 2 7.2 -7.4 0 0 0 0 1.01968 5
2227 2 7.2 -7.2 0 0 0 0 1.02 5
2178 2 7.4 -7.4 0 0 0 0 1.01976 5
2179 2 7.6 -7.4 0 0 0 0 1.01972 5
2228 2 7.4 -7.2 0 0 0 0 1.02001 5
2229 2 7.6 -7.2 0 0 0 0 1.01998 5
2180 2 7.8 -7.4 0 0 0 0 1.01969 5
2181 2 8 -7.4 0 0 0 0 1.0198 5
2230 2 7.8 -7.2 0 0 0 0 1.01999 5
2231 2 8 -7.2 0 0 0 0 1.02004 5
2182 2 8.2 -7.4 0 0 0 0 1.01973 5
2183 2 8.4 -7.4 0 0 0 0 1.0198 5
2232 2 8.2 -7.2 0 0 0 0 1.01998 5
2233 2 8.4 -7.2 0 0 0 0 1.01999 5
2184 2 8.6 -7.4 0 0 0 0 1.01981 5
2185 2 8.8 -7.4 0 0 0 0 1.01984 5
2234 2 8.6 -7.2 0 0 0 0 1.02 5
2235 2 8.8 -7.2 0 0 0 0 1.02002 5
2186 2 9 -7.4 0 0 0 0 1.01979 5
2187 2 9.2 -7.4 0 0 0 0 1.01981 5
2236 2 9 -7.2 0 0 0 0 1.02003 5
2237 2 9.2 -7.2 0 0 0 0 1.02006 5
2188 2 9.4 -7.4 0 0 0 0 1.01985 5
2189 2 9.6 -7.4 0 0 0 0 1.01993 5
2238 2 9.4 -7.2 0 0 0 0 1.02008 5
2239 2 9.6 -7.2 0 0 0 0 1.02011 5
2190 2 9.8 -7.4 0 0 0 0 1.0199 5
2240 2 9.8 -7.2 0 0 0 0 1.02011 5
2191 2 10 -7.4 0 0 0 0 1.01994 5
2241 2 10 -7.2 0 0 0 0 1.0201 5
2192 2 10.2 -7.4 0 0 0 0 1.01992 5
2242 2 10.2 -7.2 0 0 0 0 1.02012 5
2193 2 10.4 -7.4 0 0 0 0 1.01999 5
2243 2 10.4 -7.2 0 0 0 0 1.02014 5
2194 2 10.6 -7.4 0 0 0 0 1.01997 5
2244 2 10.6 -7.2 0 0 0 0 1.02016 5
2195 2 10.8 -7.4 0 0 0 0 1.02002 5
2245 2 10.8 -7.2 0 0 0 0 1.02018 5
13615 1 1.60013 -6.75913 0.02 0 -0.00113304 -3.62965e-06 1 2
13616 1 1.81081 -6.77156 0.02 0 -0.00284911 -0.000734341 1 2
13617 1 2.01486 -6.73708 0.02 0 -0.00326197 -0.000548765 1 2
13618 1 2.20844 -6.73668 0.02 0 -0.00301426 -0.000532803 1 2
13619 1 2.40058 -6.76418 0.02 0 -0.00339664 -0.000463416 1 2
2251 2 2 -7 0 0 0 0 0.999746 5
13620 1 2.58786 -6.72592 0.02 0 -0.00204435 -0.0003606 1 2
13621 1 2.78073 -6.74511 0.02 0 -0.00277704 -0.000529328 1 2
2252 2 2.2 -7 0 0 0 0 1.00039 5
2253 2 2.4 -7 0 0 0 0 0.999507 5
13622 1 2.97612 -6.75213 0.02 0 -0.00287176 -0.000484713 1 2
13623 1 3.17823 -6.74839 0.02 0 -0.00281421 -0.000461565 1 2
2254 2 2.6 -7 0 0 0 0 0.999313 5
2255 2 2.8 -7 0 0 0 0 1.00064 5
13624 1 3.37655 -6.75526 0.02 0 -0.00303803 -0.000366137 1 2
13625 1 3.58072 -6.7397 0.02 0 -0.00288586 -0.000275299 1 2
2256 2 3 -7 0 0 0 0 1.00013 5
2257 2 3.2 -7 0 0 0 0 1.00009 5
12903 1 3.7912 -6.76647 0.02 0 -0.00588111 -0.000301811 1 2
12904 1 3.99351 -6.74125 0.02 0 -0.0103554 0.00126189 1 2
12905 1 4.05927 -6.79853 0.00565337 -0.000677729 6.11614e-07 -6.761e-06 1.03053 0
2258 2 3.4 -7 0 0 0 0 0.999816 5
2259 2 3.6 -7 0 0 0 0 1.00182 5
2260 2 3.8 -7 0 0 0 0 1.0064 5
12906 1 4.20918 -6.62221 0.0096978 0.00260072 -6.26626e-05 9.66306e-06 1.02938 0
12907 1 4.24025 -6.77236 0.00532244 -0.000138596 -1.8554e-05 4.28063e-06 1.03247 0
12908 1 4.45328 -6.5917 0.010839 0.00179901 -4.68929e-05 -1.0288e-05 1.02422 0
2261 2 4 -7 0 0 0 0 1.01342 5
2262 2 4.2 -7 0 0 0 0 1.0229 5
12909 1 4.40739 -6.74651 0.00659566 0.00038939 -3.82027e-05 1.03298e-06 1.02609 0
12910 1 4.6125 -6.56212 0.0108248 0.00173735 -3.2577e-05 -8.75555e-06 1.02237 0
12911 1 4.57851 -6.76098 0.00570109 0.00032904 -2.55722e-05 6.78479e-07 1.02306 0
12207 1 4.73226 -6.65281 0.00775061 0.000998347 -2.03977e-05 -1.76796e-06 1.02172 0
2263 2 4.4 -7 0 0 0 0 1.02658 5
2264 2 4.6 -7 0 0 0 0 1.02291 5
12210 1 4.82175 -6.77494 0.00410478 0.000103991 -9.2684e-06 8.88585e-07 1.0224 0
12212 1 4.98867 -6.70649 0.00489303 0.000356239 -3.33167e-06 1.10808e-06 1.02176 0
11540 1 5.13624 -6.79126 0.00290792 -0.000135903 -6.24783e-07 7.98544e-07 1.02213 0
2265 2 4.8 -7 0 0 0 0 1.02156 5
2266 2 5 -7 0 0 0 0 1.02143 5
12214 1 5.19518 -6.61975 0.00606394 0.000536114 1.70316e-06 1.59315e-06 1.02141 0
11546 1 5.35528 -6.63904 0.00509572 0.00037112 2.64997e-06 1.44011e-06 1.02115 0
11552 1 5.3898 -6.79218 0.00245487 -0.000158939 1.24438e-06 6.13184e-07 1.02179 0
2267 2 5.2 -7 0 0 0 0 1.02135 5
2268 2 5.4 -7 0 0 0 0 1.02119 5
10855 1 5.56377 -6.72164 0.00320396 3.54791e-05 2.75334e-06 7.98475e-07 1.02114 0
10858 1 5.72798 -6.74542 0.00253456 -7.629e-05 2.86013e-06 4.82342e-07 1.02107 0
10861 1 5.97612 -6.624 0.00392918 0.000189641 5.23475e-06 5.15396e-07 1.02055 0
10169 1 5.89599 -6.78352 0.00194529 -0.000186358 2.76667e-06 9.53758e-08 1.02119 0
2269 2 5.6 -7 0 0 0 0 1.02089 5
2270 2 5.8 -7 0 0 0 0 1.02071 5
10856 1 6.16462 -6.59486 0.00402725 0.000194888 5.84532e-06 1.34858e-07 1.02041 0
10172 1 6.10129 -6.76006 0.00201691 -0.000130867 3.43783e-06 -9.32648e-08 1.02092 0
3109 1 6.28954 -6.75992 0.00187162 -0.000147901 3.63128e-06 -3.61504e-07 1.02082 0
2271 2 6 -7 0 0 0 0 1.02065 5
2272 2 6.2 -7 0 0 0 0 1.02051 5
3113 1 6.47469 -6.7515 0.00183395 -0.000143318 3.90642e-06 -6.99523e-07 1.02076 0
3115 1 6.65352 -6.74213 0.00179709 -0.000125931 4.0908e-06 -1.12239e-06 1.0206 0
2273 2 6.4 -7 0 0 0 0 1.02042 5
2274 2 6.6 -7 0 0 0 0 1.02033 5
3116 1 6.83315 -6.71427 0.00193922 -6.09206e-05 4.36597e-06 -1.60568e-06 1.02029 0
3117 1 7.09588 -6.6596 0.00231066 4.10172e-05 4.41644e-06 -2.09354e-06 1.02013 0
3119 1 6.97885 -6.81625 0.00117026 -0.000272158 3.40826e-06 -1.70506e-06 1.02066 0
2275 2 6.8 -7 0 0 0 0 1.02024 5
2276 2 7 -7 0 0 0 0 1.02025 5
3118 1 7.27039 -6.63904 0.00238957 6.79066e-05 3.9489e-06 -2.2723e-06 1.02001 0
3121 1 7.31092 -6.78539 0.00118003 -0.000165237 2.85615e-06 -1.62347e-06 1.02052 0
3120 1 7.61134 -6.62654 0.00234469 8.45955e-05 2.41994e-06 -1.96402e-06 1.02 0
3123 1 7.509 -6.78075 0.00117377 -0.000165556 2.15486e-06 -1.40995e-06 1.02052 0
2277 2 7.2 -7 0 0 0 0 1.02024 5
2278 2 7.4 -7 0 0 0 0 1.02023 5
2279 2 7.6 -7 0 0 0 0 1.02019 5
3122 1 7.76426 -6.6549 0.00199947 6.92847e-05 1.55684e-06 -1.57068e-06 1.01999 0
3125 1 7.83066 -6.79755 0.000981435 -0.000187323 1.1206e-06 -7.76602e-07 1.02056 0
3126 1 8.03784 -6.73449 0.00131738 -6.52184e-05 4.17792e-07 -6.71868e-07 1.02031 0
2280 2 7.8 -7 0 0 0 0 1.02021 5
2281 2 8 -7 0 0 0 0 1.02022 5
3127 1 8.21519 -6.75578 0.00114382 -0.000135483 -1.85633e-07 -2.62544e-07 1.02044 0
3128 1 8.39501 -6.73078 0.00129212 -0.000100361 -8.13611e-07 -1.07467e-07 1.02037 0
2282 2 8.2 -7 0 0 0 0 1.02017 5
2283 2 8.4 -7 0 0 0 0 1.02016 5
3129 1 8.56723 -6.73176 0.00125615 -0.000115388 -1.20858e-06 9.8138e-08 1.02041 0
3130 1 8.73703 -6.72586 0.0012716 -0.000104259 -1.53392e-06 2.47294e-07 1.02038 0
3131 1 8.90602 -6.7388 0.00117026 -0.000129055 -1.61205e-06 3.77976e-07 1.02045 0
2284 2 8.6 -7 0 0 0 0 1.02016 5
2285 2 8.8 -7 0 0 0 0 1.02019 5
3132 1 9.08508 -6.75557 0.00107642 -0.00016318 -1.56514e-06 4.43871e-07 1.02055 0
3133 1 9.28122 -6.68947 0.00147145 -1.7492e-05 -2.06439e-06 4.09849e-07 1.02021 0
2286 2 9 -7 0 0 0 0 1.02023 5
2287 2 9.2 -7 0 0 0 0 1.02024 5
3134 1 9.41982 -6.75141 0.00105466 -0.000150743 -1.60203e-06 4.69063e-07 1.02053 0
3135 1 9.59723 -6.7466 0.0010849 -0.000140609 -1.62217e-06 4.72819e-07 1.02054 0
2288 2 9.4 -7 0 0 0 0 1.02026 5
2289 2 9.6 -7 0 0 0 0 1.0203 5
3136 1 9.79306 -6.75019 0.00107195 -0.000147433 -1.55958e-06 4.42935e-07 1.02055 0
3137 1 9.99044 -6.73854 0.00113716 -0.000130641 -1.65851e-06 4.36945e-07 1.0205 0
2290 2 9.8 -7 0 0 0 0 1.02029 5
2291 2 10 -7 0 0 0 0 1.02028 5
3138 1 10.1784 -6.74488 0.00109458 -0.000151626 -1.65394e-06 4.4241e-07 1.02055 0
3139 1 10.3704 -6.73196 0.00117273 -0.000128911 -1.81654e-06 4.39445e-07 1.02051 0
3140 1 10.5582 -6.74178 0.00111152 -0.000152891 -1.81218e-06 4.42671e-07 1.02058 0
2292 2 10.2 -7 0 0 0 0 1.02029 5
2293 2 10.4 -7 0 0 0 0 1.02031 5
3141 1 10.752 -6.73546 0.00115066 -0.000139859 -1.93432e-06 4.38589e-07 1.02056 0
3142 1 10.9453 -6.73957 0.00112285 -0.000148794 -1.96779e-06 4.35947e-07 1.02059 0
2294 2 10.6 -7 0 0 0 0 1.02033 5
2295 2 10.8 -7 0 0 0 0 1.02035 5
13626 1 1.81604 -6.58618 0.02 0 -0.000164221 3.0333e-05 1 2
13627 1 1.77558 -6.41015 0.02 0 -2.25888e-07 -8.70428e-08 1 2
13628 1 1.80604 -6.22782 0.02 0 7.79787e-08 5.31173e-08 1 2
13630 1 2.01631 -6.55603 0.02 0 6.06051e-05 0.000301234 1 2
13631 1 1.99562 -6.38041 0.02 0 5.44017e-05 7.81627e-05 1 2
13633 1 2.01537 -6.20093 0.02 0 2.79627e-06 4.98247e-06 1 2
13629 1 2.21381 -6.55449 0.02 0 0.000186568 0.000433686 1 2
13632 1 2.22724 -6.37493 0.02 0 9.33895e-05 0.000149538 1 2
13634 1 2.2207 -6.19124 0.02 0 6.44342e-06 1.29871e-05 1 2
13636 1 2.41057 -6.56259 0.02 0 0.000207763 0.000460755 1 2
13637 1 2.4366 -6.37295 0.02 0 0.000101057 0.000155747 1 2
13639 1 2.43218 -6.18503 0.02 0 6.44201e-06 1.32106e-05 1 2
13635 1 2.60917 -6.54316 0.02 0 0.00018995 0.00045994 1 2
13638 1 2.63582 -6.35256 0.02 0 6.7322e-05 0.000121144 1 2
13640 1 2.80232 -6.5541 0.02 0 0.000183374 0.000453722 1 2
13642 1 2.82902 -6.35927 0.02 0 7.60109e-05 0.000132019 1 2
13641 1 2.99325 -6.56552 0.02 0 0.000128768 0.000452496 1 2
13643 1 3.0186 -6.37098 0.02 0 8.34761e-05 0.00014134 1 2
13644 1 3.18242 -6.55383 0.02 0 0.000159841 0.000347486 1 2
13646 1 3.20986 -6.35953 0.02 0 7.54876e-05 0.000122627 1 2
13645 1 3.37546 -6.57356 0.02 0 0.000117877 0.000365675 1 2
13647 1 3.39963 -6.38627 0.02 0 9.5521e-05 0.000152204 1 2
13648 1 3.41093 -6.1843 0.02 0 4.97447e-06 1.29086e-05 1 2
13649 1 3.57137 -6.55521 0.02 0 2.53726e-05 0.000394006 1 2
13650 1 3.5916 -6.36285 0.02 0 -6.97833e-05 0.000130634 1 2
12916 1 3.75874 -6.5656 0.02 0 -0.00127893 0.000571128 1 2
12915 1 3.94574 -6.56063 0.02 0 -0.00479194 0.00124932 1 2
12917 1 3.78197 -6.35968 0.02 0 -0.00119848 0.000236942 1 2
12918 1 3.97259 -6.37026 0.02 0 -0.00438495 0.000597969 1 2
12919 1 3.99447 -6.17271 0.02 0 -0.00476246 0.000230145 1 2
12920 1 4.00516 -6.60866 0.0125518 0.00108022 -3.1368e-05 1.16123e-05 1.01968 0
12922 1 3.99991 -6.3591 0.02 0 -0.00287195 0.000635723 1.01609 2
12921 1 4.13521 -6.47532 0.0121815 0.00218963 -0.000164684 6.46157e-05 1.02771 0
12923 1 4.24099 -6.33407 0.0126458 0.00313674 -0.000121688 -4.60138e-05 1.02828 0
12924 1 4.11365 -6.19808 0.0135265 0.0014744 -9.83097e-05 -2.77814e-05 1.02362 0
12925 1 4.25872 -6.13641 0.0132112 0.00284074 -4.47519e-05 -1.82013e-05 1.0264 0
12926 1 4.31655 -6.50077 0.0119759 0.00298274 -8.84173e-05 -1.45817e-05 1.02787 0
12927 1 4.46263 -6.41298 0.0136699 0.00290013 -3.99184e-05 -2.13091e-05 1.02423 0
12928 1 4.38942 -6.25976 0.0143068 0.00363104 -2.84232e-05 -3.5765e-05 1.02517 0
12930 1 4.42315 -6.07605 0.0151025 0.00373456 1.80133e-06 -1.70452e-05 1.02381 0
12929 1 4.55173 -6.21248 0.0149205 0.00362788 -8.6521e-06 -1.79342e-05 1.02281 0
12932 1 4.61922 -6.37042 0.0136213 0.00288502 -2.21375e-05 -1.42301e-05 1.02262 0
12934 1 4.71791 -6.19517 0.0144617 0.00350366 -6.08428e-06 -8.90247e-06 1.02235 0
12933 1 4.75773 -6.4268 0.0120996 0.00225848 -1.62253e-05 -6.29227e-06 1.02232 0
12935 1 4.86972 -6.15514 0.0140005 0.0033622 -5.9373e-07 -3.72528e-06 1.02233 0
12938 1 4.87882 -6.32601 0.012518 0.00254649 -5.64703e-06 -3.17661e-06 1.02236 0
12206 1 4.86538 -6.54809 0.00933269 0.00139033 -1.07932e-05 -1.19882e-06 1.02197 0
12939 1 5.03292 -6.12468 0.0134392 0.00311385 3.03056e-06 -1.23191e-06 1.02219 0
12238 1 5.02725 -6.34427 0.0114385 0.00205719 -3.19545e-07 -2.75544e-07 1.02219 0
12208 1 5.01849 -6.54209 0.00849382 0.00108445 -2.48283e-06 8.3901e-07 1.02185 0
12240 1 5.1564 -6.23874 0.0118952 0.0022886 3.45408e-06 2.91492e-07 1.022 0
12209 1 5.1593 -6.45184 0.00926517 0.00129024 1.96443e-06 1.39823e-06 1.0218 0
12241 1 5.32133 -6.26624 0.0108323 0.00182639 4.85221e-06 7.9404e-07 1.02168 0
12211 1 5.31477 -6.4265 0.00889908 0.00117973 4.21211e-06 1.48443e-06 1.02153 0
12246 1 5.45969 -6.13555 0.0114917 0.00212339 5.82477e-06 1.23847e-07 1.02149 0
12248 1 5.51316 -6.28359 0.00980848 0.00144812 5.87049e-06 8.72126e-07 1.02136 0
12215 1 5.59475 -6.42451 0.00779289 0.000864021 5.68969e-06 1.22001e-06 1.02112 0
12213 1 5.4446 -6.50171 0.0072599 0.000764758 4.60407e-06 1.50053e-06 1.02119 0
12252 1 5.69604 -6.26254 0.00931727 0.00127814 6.56837e-06 6.7106e-07 1.02114 0
11543 1 5.62021 -6.57633 0.00548034 0.000422378 4.77738e-06 1.29701e-06 1.02086 0
12216 1 5.78779 -6.39503 0.00750403 0.000788192 6.50225e-06 8.90116e-07 1.02094 0
12258 1 5.86746 -6.1657 0.00966469 0.00138569 6.95737e-06 1.69476e-07 1.02101 0
11548 1 5.79594 -6.56914 0.00514148 0.000355106 5.39096e-06 9.45282e-07 1.0207 0