ITEM: TIMESTEP
75000
ITEM: NUMBER OF ATOMS
12576
ITEM: BOX BOUNDS ff ff pp
0.0000000000000000e+00 2.2000000000000000e+01
-1.0000000000000000e+01 1.0000000000000000e+01
-2.0000000000000000e-02 2.0000000000000000e-02
ITEM: ATOMS id type x y vx vy fx fy c_den c_phase
1501 2 2 -10 0 0 0 0 1 5
1535 2 2 -9.8 0 0 0 0 1 5
1569 2 2 -9.6 0 0 0 0 1 5
1502 2 2.2 -10 0 0 0 0 1 5
1503 2 2.4 -10 0 0 0 0 1 5
1536 2 2.2 -9.8 0 0 0 0 1 5
1537 2 2.4 -9.8 0 0 0 0 1 5
1570 2 2.2 -9.6 0 0 0 0 1 5
1571 2 2.4 -9.6 0 0 0 0 1 5
1504 2 2.6 -10 0 0 0 0 1 5
1505 2 2.8 -10 0 0 0 0 1 5
1538 2 2.6 -9.8 0 0 0 0 1 5
1539 2 2.8 -9.8 0 0 0 0 1 5
1572 2 2.6 -9.6 0 0 0 0 1 5
1573 2 2.8 -9.6 0 0 0 0 1 5
1506 2 3 -10 0 0 0 0 1 5
1540 2 3 -9.8 0 0 0 0 1 5
1574 2 3 -9.6 0 0 0 0 1 5
1507 2 3.2 -10 0 0 0 0 1 5
1541 2 3.2 -9.8 0 0 0 0 1 5
1575 2 3.2 -9.6 0 0 0 0 1 5
1508 2 3.4 -10 0 0 0 0 1 5
1542 2 3.4 -9.8 0 0 0 0 1 5
1576 2 3.4 -9.6 0 0 0 0 1 5
1509 2 3.6 -10 0 0 0 0 1 5
1543 2 3.6 -9.8 0 0 0 0 1 5
1577 2 3.6 -9.6 0 0 0 0 1 5
1510 2 3.8 -10 0 0 0 0 1 5
1544 2 3.8 -9.8 0 0 0 0 1 5
1578 2 3.8 -9.6 0 0 0 0 1 5
1511 2 4 -10 0 0 0 0 1 5
1512 2 4.2 -10 0 0 0 0 1 5
1545 2 4 -9.8 0 0 0 0 1 5
1546 2 4.2 -9.8 0 0 0 0 1 5
1579 2 4 -9.6 0 0 0 0 1 5
1580 2 4.2 -9.6 0 0 0 0 1 5
1513 2 4.4 -10 0 0 0 0 1 5
1514 2 4.6 -10 0 0 0 0 1 5
1547 2 4.4 -9.8 0 0 0 0 1 5
1548 2 4.6 -9.8 0 0 0 0 1 5
1581 2 4.4 -9.6 0 0 0 0 1 5
1582 2 4.6 -9.6 0 0 0 0 1 5
1515 2 4.8 -10 0 0 0 0 1 5
1516 2 5 -10 0 0 0 0 1 5
1549 2 4.8 -9.8 0 0 0 0 1 5
1550 2 5 -9.8 0 0 0 0 1 5
1583 2 4.8 -9.6 0 0 0 0 1 5
1584 2 5 -9.6 0 0 0 0 1 5
1517 2 5.2 -10 0 0 0 0 1 5
1518 2 5.4 -10 0 0 0 0 1 5
1551 2 5.2 -9.8 0 0 0 0 1 5
1552 2 5.4 -9.8 0 0 0 0 1 5
1585 2 5.2 -9.6 0 0 0 0 1 5
1586 2 5.4 -9.6 0 0 0 0 1 5
1519 2 5.6 -10 0 0 0 0 1 5
1553 2 5.6 -9.8 0 0 0 0 1 5
1587 2 5.6 -9.6 0 0 0 0 1 5
1520 2 5.8 -10 0 0 0 0 1 5
1554 2 5.8 -9.8 0 0 0 0 1 5
1588 2 5.8 -9.6 0 0 0 0 1 5
1521 2 6 -10 0 0 0 0 1 5
1555 2 6 -9.8 0 0 0 0 1 5
1589 2 6 -9.6 0 0 0 0 1 5
1522 2 6.2 -10 0 0 0 0 1 5
1523 2 6.4 -10 0 0 0 0 1 5
1556 2 6.2 -9.8 0 0 0 0 1 5
1557 2 6.4 -9.8 0 0 0 0 1 5
1590 2 6.2 -9.6 0 0 0 0 1 5
1591 2 6.4 -9.6 0 0 0 0 1 5
1524 2 6.6 -10 0 0 0 0 1 5
1525 2 6.8 -10 0 0 0 0 1 5
1558 2 6.6 -9.8 0 0 0 0 1 5
1559 2 6.8 -9.8 0 0 0 0 1 5
1592 2 6.6 -9.6 0 0 0 0 1 5
1593 2 6.8 -9.6 0 0 0 0 1 5
1526 2 7 -10 0 0 0 0 1 5
1527 2 7.2 -10 0 0 0 0 1 5
1560 2 7 -9.8 0 0 0 0 1 5
1561 2 7.2 -9.8 0 0 0 0 1 5
1594 2 7 -9.6 0 0 0 0 1 5
1595 2 7.2 -9.6 0 0 0 0 1 5
1603 2 2 -9.4 0 0 0 0 1 5
1637 2 2 -9.2 0 0 0 0 1 5
1604 2 2.2 -9.4 0 0 0 0 1 5
1605 2 2.4 -9.4 0 0 0 0 1 5
1638 2 2.2 -9.2 0 0 0 0 1 5
1639 2 2.4 -9.2 0 0 0 0 1 5
1606 2 2.6 -9.4 0 0 0 0 1 5
1607 2 2.8 -9.4 0 0 0 0 1 5
1640 2 2.6 -9.2 0 0 0 0 1 5
1641 2 2.8 -9.2 0 0 0 0 1 5
1608 2 3 -9.4 0 0 0 0 1 5
1642 2 3 -9.2 0 0 0 0 1 5
1609 2 3.2 -9.4 0 0 0 0 1 5
1643 2 3.2 -9.2 0 0 0 0 1 5
1610 2 3.4 -9.4 0 0 0 0 1 5
1644 2 3.4 -9.2 0 0 0 0 1 5
1611 2 3.6 -9.4 0 0 0 0 1 5
1645 2 3.6 -9.2 0 0 0 0 1 5
1612 2 3.8 -9.4 0 0 0 0 1 5
1646 2 3.8 -9.2 0 0 0 0 1 5
1613 2 4 -9.4 0 0 0 0 1 5
1614 2 4.2 -9.4 0 0 0 0 1 5
1647 2 4 -9.2 0 0 0 0 1 5
1648 2 4.2 -9.2 0 0 0 0 1 5
1615 2 4.4 -9.4 0 0 0 0 1 5
1616 2 4.6 -9.4 0 0 0 0 1 5
1649 2 4.4 -9.2 0 0 0 0 1 5
1650 2 4.6 -9.2 0 0 0 0 1 5
1617 2 4.8 -9.4 0 0 0 0 1 5
1618 2 5 -9.4 0 0 0 0 1 5
1651 2 4.8 -9.2 0 0 0 0 1 5
1652 2 5 -9.2 0 0 0 0 1 5
1619 2 5.2 -9.4 0 0 0 0 1 5
1620 2 5.4 -9.4 0 0 0 0 1 5
1653 2 5.2 -9.2 0 0 0 0 1 5
1654 2 5.4 -9.2 0 0 0 0 1 5
1621 2 5.6 -9.4 0 0 0 0 1 5
1655 2 5.6 -9.2 0 0 0 0 1 5
1622 2 5.8 -9.4 0 0 0 0 1 5
1656 2 5.8 -9.2 0 0 0 0 1 5
1623 2 6 -9.4 0 0 0 0 1 5
1657 2 6 -9.2 0 0 0 0 1 5
1624 2 6.2 -9.4 0 0 0 0 1 5
1625 2 6.4 -9.4 0 0 0 0 1 5
1658 2 6.2 -9.2 0 0 0 0 1 5
1659 2 6.4 -9.2 0 0 0 0 1 5
1626 2 6.6 -9.4 0 0 0 0 1 5
1627 2 6.8 -9.4 0 0 0 0 1 5
1660 2 6.6 -9.2 0 0 0 0 1 5
1661 2 6.8 -9.2 0 0 0 0 1 5
1628 2 7 -9.4 0 0 0 0 1 5
1629 2 7.2 -9.4 0 0 0 0 1 5
1662 2 7 -9.2 0 0 0 0 1 5
1663 2 7.2 -9.2 0 0 0 0 1 5
1671 2 2 -9 0 0 0 0 1 5
1705 2 2 -8.8 0 0 0 0 1 5
1672 2 2.2 -9 0 0 0 0 1 5
1673 2 2.4 -9 0 0 0 0 1 5
1706 2 2.2 -8.8 0 0 0 0 1 5
1707 2 2.4 -8.8 0 0 0 0 1 5
1674 2 2.6 -9 0 0 0 0 1 5
1675 2 2.8 -9 0 0 0 0 1 5
1708 2 2.6 -8.8 0 0 0 0 1 5
1709 2 2.8 -8.8 0 0 0 0 1 5
1676 2 3 -9 0 0 0 0 1 5
1710 2 3 -8.8 0 0 0 0 1 5
1677 2 3.2 -9 0 0 0 0 1 5
1711 2 3.2 -8.8 0 0 0 0 1 5
1678 2 3.4 -9 0 0 0 0 1 5
1712 2 3.4 -8.8 0 0 0 0 1 5
1679 2 3.6 -9 0 0 0 0 1 5
1713 2 3.6 -8.8 0 0 0 0 1 5
1680 2 3.8 -9 0 0 0 0 1 5
1714 2 3.8 -8.8 0 0 0 0 1 5
1681 2 4 -9 0 0 0 0 1 5
1682 2 4.2 -9 0 0 0 0 1 5
1715 2 4 -8.8 0 0 0 0 1 5
1716 2 4.2 -8.8 0 0 0 0 1 5
1683 2 4.4 -9 0 0 0 0 1 5
1684 2 4.6 -9 0 0 0 0 1 5
1717 2 4.4 -8.8 0 0 0 0 1 5
1718 2 4.6 -8.8 0 0 0 0 1 5
1685 2 4.8 -9 0 0 0 0 1 5
1686 2 5 -9 0 0 0 0 1 5
1719 2 4.8 -8.8 0 0 0 0 1 5
1720 2 5 -8.8 0 0 0 0 1 5
1687 2 5.2 -9 0 0 0 0 1 5
1688 2 5.4 -9 0 0 0 0 1 5
1721 2 5.2 -8.8 0 0 0 0 1 5
1722 2 5.4 -8.8 0 0 0 0 1 5
1689 2 5.6 -9 0 0 0 0 1 5
1723 2 5.6 -8.8 0 0 0 0 1 5
1690 2 5.8 -9 0 0 0 0 1 5
1724 2 5.8 -8.8 0 0 0 0 1 5
1691 2 6 -9 0 0 0 0 1 5
1725 2 6 -8.8 0 0 0 0 1 5
1692 2 6.2 -9 0 0 0 0 1 5
1693 2 6.4 -9 0 0 0 0 1 5
1726 2 6.2 -8.8 0 0 0 0 1 5
1727 2 6.4 -8.8 0 0 0 0 1 5
1694 2 6.6 -9 0 0 0 0 1 5
1695 2 6.8 -9 0 0 0 0 1 5
1728 2 6.6 -8.8 0 0 0 0 1 5
1729 2 6.8 -8.8 0 0 0 0 1 5
1696 2 7 -9 0 0 0 0 1 5
1697 2 7.2 -9 0 0 0 0 1 5
1730 2 7 -8.8 0 0 0 0 1 5
1731 2 7.2 -8.8 0 0 0 0 1 5
1739 2 2 -8.6 0 0 0 0 1 5
1773 2 2 -8.4 0 0 0 0 1 5
1740 2 2.2 -8.6 0 0 0 0 1 5
1741 2 2.4 -8.6 0 0 0 0 1 5
1774 2 2.2 -8.4 0 0 0 0 1 5
1775 2 2.4 -8.4 0 0 0 0 1 5
1742 2 2.6 -8.6 0 0 0 0 1 5
1743 2 2.8 -8.6 0 0 0 0 1 5
1776 2 2.6 -8.4 0 0 0 0 1 5
1777 2 2.8 -8.4 0 0 0 0 1 5
1744 2 3 -8.6 0 0 0 0 1 5
1778 2 3 -8.4 0 0 0 0 1 5
1745 2 3.2 -8.6 0 0 0 0 1 5
1779 2 3.2 -8.4 0 0 0 0 1 5
1746 2 3.4 -8.6 0 0 0 0 1 5
1780 2 3.4 -8.4 0 0 0 0 1 5
1747 2 3.6 -8.6 0 0 0 0 1 5
1781 2 3.6 -8.4 0 0 0 0 1 5
1748 2 3.8 -8.6 0 0 0 0 1 5
1782 2 3.8 -8.4 0 0 0 0 1 5
1749 2 4 -8.6 0 0 0 0 1 5
1750 2 4.2 -8.6 0 0 0 0 1 5
1783 2 4 -8.4 0 0 0 0 1 5
1784 2 4.2 -8.4 0 0 0 0 1 5
1751 2 4.4 -8.6 0 0 0 0 1 5
1752 2 4.6 -8.6 0 0 0 0 1 5
1785 2 4.4 -8.4 0 0 0 0 1 5
1786 2 4.6 -8.4 0 0 0 0 1 5
1753 2 4.8 -8.6 0 0 0 0 1 5
1754 2 5 -8.6 0 0 0 0 1 5
1787 2 4.8 -8.4 0 0 0 0 1 5
1788 2 5 -8.4 0 0 0 0 1 5
1755 2 5.2 -8.6 0 0 0 0 1 5
1756 2 5.4 -8.6 0 0 0 0 1 5
1789 2 5.2 -8.4 0 0 0 0 1 5
1790 2 5.4 -8.4 0 0 0 0 1 5
1757 2 5.6 -8.6 0 0 0 0 1 5
1791 2 5.6 -8.4 0 0 0 0 1 5
1758 2 5.8 -8.6 0 0 0 0 1 5
1792 2 5.8 -8.4 0 0 0 0 1 5
1759 2 6 -8.6 0 0 0 0 1 5
1793 2 6 -8.4 0 0 0 0 1 5
1760 2 6.2 -8.6 0 0 0 0 1 5
1761 2 6.4 -8.6 0 0 0 0 1 5
1794 2 6.2 -8.4 0 0 0 0 1 5
1795 2 6.4 -8.4 0 0 0 0 1 5
1762 2 6.6 -8.6 0 0 0 0 1 5
1763 2 6.8 -8.6 0 0 0 0 1 5
1796 2 6.6 -8.4 0 0 0 0 1 5
1797 2 6.8 -8.4 0 0 0 0 1 5
1764 2 7 -8.6 0 0 0 0 1 5
1765 2 7.2 -8.6 0 0 0 0 1 5
1798 2 7 -8.4 0 0 0 0 1 5
1799 2 7.2 -8.4 0 0 0 0 1 5
1807 2 2 -8.2 0 0 0 0 1 5
1841 2 2 -8 0 0 0 0 1 5
1808 2 2.2 -8.2 0 0 0 0 1 5
1809 2 2.4 -8.2 0 0 0 0 1 5
1842 2 2.2 -8 0 0 0 0 1 5
1843 2 2.4 -8 0 0 0 0 1 5
1810 2 2.6 -8.2 0 0 0 0 1 5
1811 2 2.8 -8.2 0 0 0 0 1 5
1844 2 2.6 -8 0 0 0 0 1 5
1845 2 2.8 -8 0 0 0 0 1 5
1812 2 3 -8.2 0 0 0 0 1 5
1846 2 3 -8 0 0 0 0 1 5
1813 2 3.2 -8.2 0 0 0 0 1 5
1847 2 3.2 -8 0 0 0 0 1 5
1814 2 3.4 -8.2 0 0 0 0 1 5
1848 2 3.4 -8 0 0 0 0 1 5
1815 2 3.6 -8.2 0 0 0 0 1 5
1849 2 3.6 -8 0 0 0 0 1 5
1816 2 3.8 -8.2 0 0 0 0 1 5
1850 2 3.8 -8 0 0 0 0 1 5
1817 2 4 -8.2 0 0 0 0 1 5
1818 2 4.2 -8.2 0 0 0 0 1 5
1851 2 4 -8 0 0 0 0 1 5
1852 2 4.2 -8 0 0 0 0 1 5
1819 2 4.4 -8.2 0 0 0 0 1 5
1820 2 4.6 -8.2 0 0 0 0 1 5
1853 2 4.4 -8 0 0 0 0 1 5
1854 2 4.6 -8 0 0 0 0 1 5
1821 2 4.8 -8.2 0 0 0 0 1 5
1822 2 5 -8.2 0 0 0 0 1 5
1855 2 4.8 -8 0 0 0 0 1 5
1856 2 5 -8 0 0 0 0 1 5
1823 2 5.2 -8.2 0 0 0 0 1 5
1824 2 5.4 -8.2 0 0 0 0 1 5
1857 2 5.2 -8 0 0 0 0 1 5
1858 2 5.4 -8 0 0 0 0 1 5
1825 2 5.6 -8.2 0 0 0 0 1 5
1859 2 5.6 -8 0 0 0 0 1 5
1826 2 5.8 -8.2 0 0 0 0 1 5
1860 2 5.8 -8 0 0 0 0 1 5
1827 2 6 -8.2 0 0 0 0 1 5
1861 2 6 -8 0 0 0 0 1 5
1828 2 6.2 -8.2 0 0 0 0 1 5
1829 2 6.4 -8.2 0 0 0 0 1 5
1862 2 6.2 -8 0 0 0 0 1 5
1863 2 6.4 -8 0 0 0 0 1 5
1830 2 6.6 -8.2 0 0 0 0 1 5
1831 2 6.8 -8.2 0 0 0 0 1 5
1864 2 6.6 -8 0 0 0 0 1 5
1865 2 6.8 -8 0 0 0 0 1 5
1832 2 7 -8.2 0 0 0 0 1 5
1833 2 7.2 -8.2 0 0 0 0 1 5
1866 2 7 -8 0 0 0 0 1 5
1867 2 7.2 -8 0 0 0 0 1 5
1875 2 2 -7.8 0 0 0 0 1 5
1909 2 2 -7.6 0 0 0 0 1 5
1943 2 2 -7.4 0 0 0 0 1.01114 5
1876 2 2.2 -7.8 0 0 0 0 1 5
1877 2 2.4 -7.8 0 0 0 0 1 5
1910 2 2.2 -7.6 0 0 0 0 1 5
1911 2 2.4 -7.6 0 0 0 0 1 5
1944 2 2.2 -7.4 0 0 0 0 0.999807 5
1945 2 2.4 -7.4 0 0 0 0 0.998684 5
1878 2 2.6 -7.8 0 0 0 0 1 5
1879 2 2.8 -7.8 0 0 0 0 1 5
1912 2 2.6 -7.6 0 0 0 0 1 5
1913 2 2.8 -7.6 0 0 0 0 1 5
1946 2 2.6 -7.4 0 0 0 0 0.99963 5
1947 2 2.8 -7.4 0 0 0 0 1.0063 5
1880 2 3 -7.8 0 0 0 0 1 5
1914 2 3 -7.6 0 0 0 0 1 5
1948 2 3 -7.4 0 0 0 0 0.999888 5
1881 2 3.2 -7.8 0 0 0 0 1 5
1915 2 3.2 -7.6 0 0 0 0 1 5
1949 2 3.2 -7.4 0 0 0 0 0.991711 5
1882 2 3.4 -7.8 0 0 0 0 1 5
1916 2 3.4 -7.6 0 0 0 0 1 5
1950 2 3.4 -7.4 0 0 0 0 1.00059 5
1883 2 3.6 -7.8 0 0 0 0 1 5
1917 2 3.6 -7.6 0 0 0 0 1 5
1951 2 3.6 -7.4 0 0 0 0 1.0002 5
1884 2 3.8 -7.8 0 0 0 0 1 5
1918 2 3.8 -7.6 0 0 0 0 1 5
1952 2 3.8 -7.4 0 0 0 0 1.04537 5
1885 2 4 -7.8 0 0 0 0 1 5
1886 2 4.2 -7.8 0 0 0 0 1 5
1919 2 4 -7.6 0 0 0 0 1 5
1920 2 4.2 -7.6 0 0 0 0 1 5
1953 2 4 -7.4 0 0 0 0 1.04498 5
1954 2 4.2 -7.4 0 0 0 0 1.04847 5
1887 2 4.4 -7.8 0 0 0 0 1 5
1888 2 4.6 -7.8 0 0 0 0 1 5
1921 2 4.4 -7.6 0 0 0 0 1 5
1922 2 4.6 -7.6 0 0 0 0 1 5
1955 2 4.4 -7.4 0 0 0 0 1.04129 5
1956 2 4.6 -7.4 0 0 0 0 1.03946 5
1889 2 4.8 -7.8 0 0 0 0 1 5
1890 2 5 -7.8 0 0 0 0 1 5
1923 2 4.8 -7.6 0 0 0 0 1 5
1924 2 5 -7.6 0 0 0 0 1 5
1957 2 4.8 -7.4 0 0 0 0 1.03995 5
1958 2 5 -7.4 0 0 0 0 1.03963 5
1891 2 5.2 -7.8 0 0 0 0 1 5
1892 2 5.4 -7.8 0 0 0 0 1 5
1925 2 5.2 -7.6 0 0 0 0 1 5
1926 2 5.4 -7.6 0 0 0 0 1 5
1959 2 5.2 -7.4 0 0 0 0 1.03957 5
1960 2 5.4 -7.4 0 0 0 0 1.0395 5
1893 2 5.6 -7.8 0 0 0 0 1 5
1927 2 5.6 -7.6 0 0 0 0 1 5
1961 2 5.6 -7.4 0 0 0 0 1.03953 5
1894 2 5.8 -7.8 0 0 0 0 1 5
1928 2 5.8 -7.6 0 0 0 0 1 5
1962 2 5.8 -7.4 0 0 0 0 1.03935 5
1895 2 6 -7.8 0 0 0 0 1 5
1929 2 6 -7.6 0 0 0 0 1 5
1963 2 6 -7.4 0 0 0 0 1.03935 5
1896 2 6.2 -7.8 0 0 0 0 1 5
1897 2 6.4 -7.8 0 0 0 0 1 5
1930 2 6.2 -7.6 0 0 0 0 1 5
1931 2 6.4 -7.6 0 0 0 0 1 5
1964 2 6.2 -7.4 0 0 0 0 1.03934 5
1965 2 6.4 -7.4 0 0 0 0 1.03916 5
1898 2 6.6 -7.8 0 0 0 0 1 5
1899 2 6.8 -7.8 0 0 0 0 1 5
1932 2 6.6 -7.6 0 0 0 0 1 5
1933 2 6.8 -7.6 0 0 0 0 1 5
1966 2 6.6 -7.4 0 0 0 0 1.03916 5
1967 2 6.8 -7.4 0 0 0 0 1.03918 5
1900 2 7 -7.8 0 0 0 0 1 5
1901 2 7.2 -7.8 0 0 0 0 1 5
1934 2 7 -7.6 0 0 0 0 1 5
1935 2 7.2 -7.6 0 0 0 0 1 5
1968 2 7 -7.4 0 0 0 0 1.03911 5
1969 2 7.2 -7.4 0 0 0 0 1.03906 5
1977 2 2 -7.2 0 0 0 0 1.01123 5
2011 2 2 -7 0 0 0 0 1.00996 5
1978 2 2.2 -7.2 0 0 0 0 1.00206 5
1979 2 2.4 -7.2 0 0 0 0 0.999826 5
2012 2 2.2 -7 0 0 0 0 1.00311 5
2013 2 2.4 -7 0 0 0 0 1.00032 5
1980 2 2.6 -7.2 0 0 0 0 1.00002 5
1981 2 2.8 -7.2 0 0 0 0 1.00118 5
2014 2 2.6 -7 0 0 0 0 1.00006 5
2015 2 2.8 -7 0 0 0 0 1.0004 5
1982 2 3 -7.2 0 0 0 0 0.999725 5
2016 2 3 -7 0 0 0 0 0.999794 5
1983 2 3.2 -7.2 0 0 0 0 0.998472 5
2017 2 3.2 -7 0 0 0 0 0.999543 5
1984 2 3.4 -7.2 0 0 0 0 1.00165 5
2018 2 3.4 -7 0 0 0 0 1.00113 5
1985 2 3.6 -7.2 0 0 0 0 1.00504 5
2019 2 3.6 -7 0 0 0 0 1.00669 5
1986 2 3.8 -7.2 0 0 0 0 1.03597 5
2020 2 3.8 -7 0 0 0 0 1.0302 5
1987 2 4 -7.2 0 0 0 0 1.04028 5
1988 2 4.2 -7.2 0 0 0 0 1.03984 5
2021 2 4 -7 0 0 0 0 1.0362 5
2022 2 4.2 -7 0 0 0 0 1.03718 5
1989 2 4.4 -7.2 0 0 0 0 1.0439 5
1990 2 4.6 -7.2 0 0 0 0 1.04154 5
2023 2 4.4 -7 0 0 0 0 1.04411 5
2024 2 4.6 -7 0 0 0 0 1.04296 5
1991 2 4.8 -7.2 0 0 0 0 1.041 5
1992 2 5 -7.2 0 0 0 0 1.04075 5
2025 2 4.8 -7 0 0 0 0 1.04186 5
2026 2 5 -7 0 0 0 0 1.04156 5
1993 2 5.2 -7.2 0 0 0 0 1.04071 5
1994 2 5.4 -7.2 0 0 0 0 1.04059 5
2027 2 5.2 -7 0 0 0 0 1.04157 5
2028 2 5.4 -7 0 0 0 0 1.04137 5
1995 2 5.6 -7.2 0 0 0 0 1.04033 5
2029 2 5.6 -7 0 0 0 0 1.04103 5
1996 2 5.8 -7.2 0 0 0 0 1.0403 5
2030 2 5.8 -7 0 0 0 0 1.04103 5
1997 2 6 -7.2 0 0 0 0 1.04032 5
2031 2 6 -7 0 0 0 0 1.04106 5
1998 2 6.2 -7.2 0 0 0 0 1.04024 5
1999 2 6.4 -7.2 0 0 0 0 1.04021 5
2032 2 6.2 -7 0 0 0 0 1.04095 5
2033 2 6.4 -7 0 0 0 0 1.04095 5
2000 2 6.6 -7.2 0 0 0 0 1.04021 5
2001 2 6.8 -7.2 0 0 0 0 1.0401 5
2034 2 6.6 -7 0 0 0 0 1.04091 5
2035 2 6.8 -7 0 0 0 0 1.04077 5
2002 2 7 -7.2 0 0 0 0 1.04005 5
2003 2 7.2 -7.2 0 0 0 0 1.04003 5
2036 2 7 -7 0 0 0 0 1.04068 5
2037 2 7.2 -7 0 0 0 0 1.04067 5
15012 1 2.00952 -6.55978 0.02 0 -0.00156046 -0.000374202 1 2
15011 1 2.19659 -6.75993 0.02 0 -0.00326117 -0.000133879 1 2
15013 1 2.2102 -6.56879 0.02 0 0.000183588 0.000120762 1 2
15014 1 2.39703 -6.73563 0.02 0 -0.00197425 -0.000260586 1 2
15016 1 2.41296 -6.55292 0.02 0 0.000257396 0.000431325 1 2
15015 1 2.59369 -6.75328 0.02 0 -0.00294501 -0.00046065 1 2
15017 1 2.61781 -6.5679 0.02 0 0.000138755 0.000479824 1 2
15018 1 2.79193 -6.73604 0.02 0 -0.00250853 -0.000554445 1 2
15020 1 2.83091 -6.56301 0.02 0 0.000123453 0.000562646 1 2
15019 1 2.99818 -6.76867 0.02 0 -0.00328396 -0.000526654 1 2
15021 1 3.02982 -6.58096 0.02 0 -2.53811e-07 0.000488585 1 2
15022 1 3.20654 -6.73157 0.02 0 -0.00222412 -0.000350191 1 2
15024 1 3.22808 -6.55022 0.02 0 0.000133394 0.000421787 1 2
15023 1 3.40272 -6.74733 0.02 0 -0.00293249 -0.000337622 1 2
15025 1 3.43255 -6.56511 0.02 0 0.000111592 0.000541271 1 2
15026 1 3.60311 -6.75542 0.02 0 -0.00422291 0.000212654 1 2
15028 1 3.65392 -6.5848 0.02 0 -0.00147507 0.000913181 1 2
15027 1 3.82113 -6.7563 0.02 0 -0.00914494 0.000242475 1 2
14629 1 4.00033 -6.74964 0.0168825 0.000180754 -0.01247 0.000723018 1.03471 0
14628 1 3.99992 -6.54655 0.02 0 -0.00758565 0.00185751 1.03182 2
15029 1 3.8599 -6.5739 0.02 0 -0.00571828 0.00116065 1 2
14630 1 3.99957 -6.79806 0.02 0 -0.0085024 0.000112422 1.04342 2
14632 1 4.12977 -6.48268 0.0106726 0.00295642 0.000304326 7.9283e-05 1.04736 0
14631 1 4.23002 -6.68436 0.00830052 0.00227505 4.37903e-05 -0.000219842 1.04878 0
14633 1 4.215 -6.50025 0.0103874 0.00334544 0.000229803 5.35485e-05 1.04991 0
14634 1 4.33511 -6.57343 0.0101819 0.00260425 0.000138483 8.34516e-06 1.0473 0
14635 1 4.39221 -6.69383 0.0071559 0.000489988 2.51741e-05 -4.40885e-05 1.0456 0
14641 1 4.02409 -6.62989 0.00937037 0.00238752 0.000157947 -0.000120129 1.03961 0
14789 1 4.07223 -6.84585 0.00374875 -0.000860402 -0.000424317 -4.28033e-05 1.05376 0
14638 1 4.52604 -6.5978 0.00927844 0.00138751 4.51657e-05 1.28331e-08 1.04272 0
14639 1 4.64863 -6.52297 0.0101127 0.00174084 3.39356e-05 -4.02413e-06 1.04166 0
14793 1 4.47483 -6.79794 0.00426213 -0.000804524 -1.30519e-05 -2.85428e-05 1.04644 0
14790 1 4.7547 -6.61549 0.00742843 0.00104657 2.42279e-05 -7.70748e-06 1.0412 0
14317 1 4.62919 -6.73463 0.00516391 0.000127963 1.88241e-05 -5.84317e-06 1.04285 0
14312 1 4.88646 -6.58595 0.0072867 0.00100184 1.77285e-05 -8.95705e-06 1.04115 0
14324 1 4.77883 -6.7924 0.0032994 -0.000427133 9.68657e-06 -6.66287e-06 1.04358 0
14313 1 5.02477 -6.54848 0.00727628 0.000976597 1.36205e-05 -9.46857e-06 1.04116 0
13969 1 4.94129 -6.72693 0.00387376 0.000124811 8.42933e-06 -6.89008e-06 1.0418 0
14320 1 5.14068 -6.61371 0.00551257 0.000605347 8.37131e-06 -8.03316e-06 1.04088 0
13971 1 5.07984 -6.78263 0.00250474 -0.000449091 4.45816e-06 -4.96469e-06 1.04288 0
14328 1 5.33601 -6.51685 0.00659363 0.000789348 6.0009e-06 -1.00631e-05 1.04069 0
13979 1 5.26799 -6.65997 0.00419034 0.000334937 5.00787e-06 -6.75126e-06 1.04079 0
13644 1 5.29266 -6.80646 0.00198562 -0.00060562 2.51799e-06 -3.88275e-06 1.04294 0
13975 1 5.44556 -6.61913 0.00454772 0.000404008 3.92541e-06 -7.60486e-06 1.04046 0
13983 1 5.59894 -6.5969 0.00459311 0.000409238 3.44262e-06 -8.14979e-06 1.04028 0
13274 1 5.47829 -6.77183 0.0021879 -0.000377026 2.08553e-06 -4.24865e-06 1.04209 0
13289 1 5.64924 -6.75712 0.00211689 -0.000311657 2.09977e-06 -4.51684e-06 1.04163 0
13649 1 5.7407 -6.57304 0.0046805 0.000432705 3.41683e-06 -8.80048e-06 1.04017 0
13641 1 5.85665 -6.63942 0.00346717 0.000269877 3.33718e-06 -7.19464e-06 1.04018 0
13276 1 6.02191 -6.62819 0.00341093 0.000266554 3.01909e-06 -7.15919e-06 1.04007 0
12949 1 5.82082 -6.79555 0.00156336 -0.000548585 2.14173e-06 -3.89045e-06 1.0422 0
12617 1 6.02667 -6.80638 0.00144026 -0.000588854 1.76864e-06 -3.47973e-06 1.04225 0
13280 1 6.22664 -6.50949 0.00471675 0.000430838 2.32372e-06 -8.69712e-06 1.03997 0
12936 1 6.16177 -6.66959 0.0026771 0.000141219 2.2148e-06 -5.7871e-06 1.04017 0
12953 1 6.32387 -6.60433 0.00340327 0.000280122 1.54534e-06 -6.39062e-06 1.03987 0
12604 1 6.44312 -6.65692 0.002586 0.000162882 5.97279e-07 -4.6926e-06 1.03996 0
11882 1 6.27639 -6.79748 0.00132422 -0.000517036 1.08896e-06 -2.90002e-06 1.04195 0
11552 1 6.50898 -6.82542 0.00108 -0.000688687 3.31172e-08 -1.57872e-06 1.04221 0
12941 1 6.59406 -6.63998 0.00269286 0.000191081 -5.52682e-07 -4.12941e-06 1.03986 0
11544 1 6.75138 -6.6107 0.00295999 0.000225131 -1.86828e-06 -3.57462e-06 1.03977 0
12288 1 6.9062 -6.61181 0.0028762 0.000209501 -3.04052e-06 -2.55584e-06 1.03978 0
11164 1 6.72373 -6.77007 0.00136256 -0.000357267 -1.10576e-06 -1.50641e-06 1.04137 0
11323 1 6.89653 -6.79206 0.00116444 -0.000573572 -1.83749e-06 -5.50528e-07 1.04188 0
12601 1 7.05989 -6.59047 0.00307694 0.000221278 -4.19918e-06 -1.77648e-06 1.03974 0
12612 1 7.2121 -6.58207 0.00312781 0.000215911 -5.0184e-06 -9.058e-07 1.03971 0
10507 1 7.06469 -6.75166 0.00145777 -0.000327972 -2.92121e-06 -3.81011e-07 1.04115 0
14744 1 5.07466 -0.0595472 0.0128223 -6.17322e-05 5.58543e-07 1.08725e-05 1.04012 0
10519 1 7.22354 -6.75661 0.00135765 -0.000365192 -3.4205e-06 2.94081e-07 1.04121 0
15030 1 2.03962 -6.37653 0.02 0 0.000239147 3.92873e-05 1 2
15031 1 2.18905 -6.18885 0.02 0 4.19148e-05 3.00602e-05 1 2
15032 1 2.24012 -6.37813 0.02 0 0.000275896 0.000210699 1 2
15035 1 2.39193 -6.1736 0.02 0 8.64966e-06 1.30418e-05 1 2
15033 1 2.43588 -6.36413 0.02 0 0.000108414 0.000146634 1 2
15034 1 2.63232 -6.38198 0.02 0 9.66092e-05 0.000151708 1 2
15036 1 2.59377 -6.19033 0.02 0 6.87729e-06 1.27057e-05 1 2
15037 1 2.8288 -6.38001 0.02 0 9.36414e-05 0.000140858 1 2
15039 1 2.79557 -6.1913 0.02 0 6.67435e-06 1.29596e-05 1 2
15038 1 3.02706 -6.39143 0.02 0 0.00011208 0.000148404 1 2
15040 1 3.00406 -6.20515 0.02 0 8.69538e-06 1.65552e-05 1 2
15041 1 3.2217 -6.36654 0.02 0 8.39815e-05 0.000115277 1 2
15043 1 3.23001 -6.18795 0.02 0 6.12919e-06 1.15357e-05 1 2
15042 1 3.41645 -6.375 0.02 0 8.6694e-05 0.000132229 1 2
15044 1 3.45468 -6.19302 0.02 0 -2.59259e-05 1.4275e-05 1 2
15045 1 3.60797 -6.41149 0.02 0 -0.000762228 0.000139328 1 2
15047 1 3.66075 -6.23015 0.02 0 -0.00148767 0.000119111 1 2
15046 1 3.81432 -6.39413 0.02 0 -0.00442426 0.000180759 1 2
14643 1 3.99999 -6.38059 0.02 0 -0.00730007 0.00115287 1.02442 2
14642 1 3.9994 -6.18483 0.02 0 -0.00485285 0.00057212 1.03135 2
15048 1 3.86716 -6.20621 0.02 0 -0.00554696 0.000542224 1 2
14644 1 4.01026 -6.32667 0.0104528 0.00121125 -0.000144204 1.87183e-05 1.03559 0
14636 1 4.4491 -6.45975 0.0120161 0.002555 6.82934e-05 1.21824e-05 1.04448 0
14637 1 4.30644 -6.38807 0.0112304 0.00324331 7.13517e-05 5.72649e-05 1.04878 0
14646 1 4.11828 -6.14683 0.0109372 0.00157198 -0.000559722 0.000146572 1.04575 0
14645 1 3.99976 -6.33443 0.02 0 -0.00482013 0.000559889 1.03264 2
14647 1 4.26194 -6.08179 0.01171 0.00286224 -0.000278043 6.2341e-05 1.04828 0
14648 1 4.25773 -6.24212 0.0111909 0.0029251 -0.000145544 9.85971e-05 1.04924 0
14650 1 4.41935 -6.11288 0.0140567 0.00343309 -1.07922e-05 1.3106e-05 1.04397 0
14649 1 4.42193 -6.27786 0.0134171 0.00322275 2.86218e-05 1.51237e-05 1.04471 0
14652 1 4.55581 -6.19435 0.0139602 0.00331546 3.4439e-05 6.71728e-06 1.04221 0
14640 1 4.57244 -6.37445 0.0126259 0.00264362 3.9147e-05 9.92235e-07 1.04233 0
14791 1 4.7797 -6.43013 0.0106553 0.00195743 2.68487e-05 -7.03645e-06 1.04159 0
14653 1 4.69769 -6.29423 0.0126819 0.00273355 3.11741e-05 -1.64052e-06 1.04183 0
14655 1 4.58624 -6.02383 0.0144477 0.00365356 2.56008e-05 8.48619e-06 1.04165 0
14795 1 4.70351 -6.12936 0.013722 0.0033076 2.63817e-05 2.11999e-06 1.04179 0
14322 1 4.92701 -6.40596 0.01004 0.00175001 1.98028e-05 -8.92677e-06 1.04166 0
14792 1 4.84832 -6.25417 0.0121425 0.0025621 2.21708e-05 -5.1938e-06 1.04195 0
14799 1 4.84306 -6.08196 0.0133181 0.00322253 1.72613e-05 -4.08341e-06 1.04196 0
14334 1 4.98686 -6.20279 0.0118495 0.0024575 1.57128e-05 -9.11762e-06 1.04201 0
14319 1 5.06676 -6.36299 0.00982838 0.00164507 1.40664e-05 -1.05703e-05 1.04166 0
14794 1 5.13854 -6.19973 0.0112028 0.00214822 1.08634e-05 -1.22676e-05 1.04182 0
14796 1 5.10966 -6.04439 0.0124536 0.00282342 9.49309e-06 -1.26407e-05 1.0419 0
14316 1 5.19246 -6.45547 0.00803399 0.00112075 9.53523e-06 -1.07417e-05 1.04116 0
14332 1 5.27519 -6.09096 0.011565 0.00231487 6.81955e-06 -1.48085e-05 1.0416 0
14314 1 5.24207 -6.30015 0.00978375 0.00158787 8.49838e-06 -1.27043e-05 1.04147 0
14315 1 5.38046 -6.20174 0.010255 0.00172661 5.75844e-06 -1.46373e-05 1.04135 0
14321 1 5.38551 -6.36416 0.00850173 0.00119145 5.82635e-06 -1.26918e-05 1.04104 0
14318 1 5.52402 -6.13124 0.0103841 0.00176083 4.47167e-06 -1.57196e-05 1.04119 0
14325 1 5.51263 -6.45599 0.00691794 0.000822868 4.38499e-06 -1.12877e-05 1.04059 0
14323 1 5.67491 -6.07947 0.0103304 0.00171627 4.23868e-06 -1.59543e-05 1.04104 0
14327 1 5.54598 -6.28595 0.00883437 0.00124614 4.38459e-06 -1.40419e-05 1.04099 0
14326 1 5.70205 -6.25351 0.0086793 0.00117597 3.99943e-06 -1.43472e-05 1.04087 0
14329 1 5.66588 -6.41793 0.00695942 0.000805983 3.87504e-06 -1.19555e-05 1.04053 0
14331 1 5.82062 -6.16668 0.00916274 0.00128848 4.12475e-06 -1.48508e-05 1.04086 0
13970 1 5.81686 -6.39599 0.00682225 0.000762378 3.76802e-06 -1.21682e-05 1.04045 0
13968 1 5.94404 -6.22562 0.00829157 0.00102889 3.92297e-06 -1.37869e-05 1.0407 0
13974 1 5.98607 -6.35393 0.00689562 0.000747585 3.60667e-06 -1.21691e-05 1.04043 0
13972 1 6.10541 -6.14574 0.00863848 0.00106986 3.87915e-06 -1.33811e-05 1.04067 0
13640 1 5.94102 -6.50416 0.00524954 0.000521638 3.51865e-06 -1.00311e-05 1.04011 0
13978 1 6.15367 -6.27785 0.00731741 0.00078011 3.18756e-06 -1.20108e-05 1.04049 0
13984 1 6.10916 -6.44743 0.00562518 0.000541803 3.07716e-06 -1.02847e-05 1.04014 0
13973 1 6.26484 -6.09273 0.00875708 0.00104558 3.50873e-06 -1.2397e-05 1.04059 0
13977 1 6.37933 -6.16554 0.00792948 0.000826033 2.29109e-06 -1.10209e-05 1.04049 0
13981 1 6.55355 -6.09468 0.00825442 0.000818027 1.42173e-06 -9.7369e-06 1.04043 0
13986 1 6.2863 -6.31766 0.00667794 0.000647239 2.2582e-06 -1.06509e-05 1.04034 0
13982 1 6.48969 -6.25817 0.0069246 0.000630456 8.29768e-07 -9.34731e-06 1.04034 0
13656 1 6.38921 -6.4076 0.00560677 0.000498927 1.21214e-06 -8.85439e-06 1.0401 0
13648 1 6.49363 -6.48813 0.00461714 0.000400441 1.72865e-07 -7.06282e-06 1.03988 0
13985 1 6.70646 -6.14448 0.00764358 0.000652431 -3.66631e-07 -7.92373e-06 1.04035 0
13646 1 6.61988 -6.30474 0.00631839 0.000524029 -6.09831e-07 -7.6975e-06 1.0402 0
13271 1 6.63864 -6.46875 0.00467057 0.000388965 -1.19779e-06 -6.07594e-06 1.03986 0
13645 1 6.86413 -6.12016 0.00767807 0.000587682 -1.53148e-06 -6.4514e-06 1.04029 0
13652 1 6.77559 -6.29471 0.00624358 0.000473134 -2.04184e-06 -6.22755e-06 1.04015 0
13647 1 7.02039 -6.14102 0.00737396 0.000482245 -2.96451e-06 -4.77903e-06 1.04023 0
13284 1 6.79654 -6.45599 0.00466562 0.000367822 -2.67649e-06 -4.82114e-06 1.03983 0
13659 1 6.93204 -6.2911 0.00614082 0.000417888 -3.39028e-06 -4.71192e-06 1.0401 0
13281 1 6.9586 -6.44606 0.00465629 0.000340315 -4.04085e-06 -3.4993e-06 1.0398 0
13657 1 7.1085 -6.27431 0.00617511 0.000362785 -4.54793e-06 -3.19677e-06 1.04008 0
13651 1 7.21107 -6.12007 0.00742232 0.000400951 -3.9345e-06 -3.19347e-06 1.04019 0
12940 1 7.12136 -6.42811 0.00474904 0.000310349 -5.13742e-06 -2.28762e-06 1.0398 0
14744 1 5.07971 -0.387441 0.0127084 2.94051e-05 1.03183e-05 1.68392e-05 1.0402 0
13270 1 7.28304 -6.25772 0.0062358 0.000307224 -5.29984e-06 -1.87456e-06 1.04006 0
12934 1 7.28133 -6.41526 0.00481273 0.000278796 -5.86747e-06 -1.17945e-06 1.03979 0
13825 1 7.2814 -0.0590732 0.0122418 8.80171e-05 9.6398e-07 2.23307e-06 1.04055 0
15049 1 2.17618 -5.99591 0.02 0 5.31254e-07 3.69174e-07 1 2
15050 1 2.18869 -5.79861 0.02 0 2.27446e-10 2.45625e-10 1 2
15051 1 2.38362 -5.9881 0.02 0 3.50584e-08 8.23534e-08 1 2
15053 1 2.39129 -5.80404 0.02 0 4.97449e-11 1.54489e-10 1 2
15052 1 2.60125 -6.00104 0.02 0 4.83558e-08 1.31544e-07 1 2
15054 1 2.59768 -5.81115 0.02 0 3.44105e-11 1.18325e-10 1 2
15055 1 2.81454 -6.003 0.02 0 4.25825e-08 1.09212e-07 1 2
15057 1 2.80421 -5.81359 0.02 0 6.52682e-11 2.12151e-10 1 2
15056 1 3.02541 -6.0243 0.02 0 1.03534e-07 2.6471e-07 1 2
15058 1 3.01977 -5.84316 0.02 0 2.01889e-10 5.47575e-10 1 2
15059 1 3.04587 -5.66559 0.02 0 0 0 1 2
15060 1 3.22814 -6.00969 0.02 0 4.85303e-08 1.19069e-07 1 2
15062 1 3.26826 -5.83787 0.02 0 1.48054e-10 4.90853e-10 1 2
15064 1 3.2565 -5.66211 0.02 0 0 0 1 2
15061 1 3.43653 -6.01202 0.02 0 -1.55478e-05 2.83258e-07 1 2
15063 1 3.51984 -5.85177 0.02 0 -0.000138586 8.44607e-06 1 2
15065 1 3.47126 -5.68099 0.02 0 -3.15339e-05 -2.30611e-07 1 2
15066 1 3.65955 -6.0438 0.02 0 -0.0012571 8.08191e-05 1 2
15070 1 3.70479 -5.67338 0.02 0 -0.0014587 7.37526e-05 1 2
15068 1 3.72493 -5.8607 0.02 0 -0.00194909 0.000140727 1 2
14656 1 3.99995 -5.99458 0.02 0 -0.00477024 0.000648686 1.03134 2
14658 1 3.99942 -5.80194 0.02 0 -0.00456697 0.000627581 1.02909 2
15067 1 3.87711 -6.01904 0.02 0 -0.00532983 0.000435783 1 2
15069 1 3.9297 -5.82953 0.02 0 -0.00663059 0.000264545 1 2
14651 1 4.39625 -5.96179 0.0140117 0.00350449 -5.2943e-05 7.6115e-06 1.04395 0
14657 1 4.18583 -5.93735 0.0111894 0.00264787 -0.000521895 -1.53771e-06 1.0474 0
14659 1 4.07031 -5.7801 0.0114217 0.00153977 -0.000725517 6.31583e-06 1.03874 0
14660 1 3.99987 -6.0007 0.02 0 -0.00476942 0.000649555 1.03148 2
14661 1 4.21235 -5.70232 0.0104868 0.00220647 -0.000347753 9.62572e-06 1.04678 0
14662 1 4.2934 -5.85192 0.0118918 0.00310991 -0.000211721 6.35131e-06 1.04648 0
14664 1 4.38224 -5.73401 0.0135712 0.00322292 -5.84743e-05 5.72539e-06 1.04363 0
14663 1 4.53154 -5.88985 0.0146293 0.00372244 1.94795e-05 9.50559e-06 1.04155 0
14666 1 4.53666 -5.74408 0.014632 0.00369511 7.96136e-06 2.72932e-06 1.04124 0
14654 1 4.74541 -5.94763 0.0141877 0.00370489 1.55624e-05 -3.94799e-07 1.04164 0
14797 1 4.97074 -6.01785 0.0131018 0.00320075 1.15177e-05 -9.12379e-06 1.04202 0
14667 1 4.68871 -5.80501 0.0145653 0.00389264 8.356e-06 -1.03036e-06 1.0413 0
14668 1 4.61224 -5.61112 0.0146622 0.0037925 2.75587e-06 -6.01309e-06 1.04094 0
14669 1 4.76273 -5.63766 0.0145424 0.00401549 7.15089e-07 -9.4909e-06 1.04137 0
14801 1 4.85176 -5.75807 0.0142578 0.00393921 4.19045e-06 -9.20092e-06 1.04174 0
14798 1 4.9067 -5.88003 0.0138411 0.0036864 7.8789e-06 -8.63859e-06 1.04192 0
14806 1 4.94516 -5.63379 0.0142279 0.00404387 2.06478e-06 -1.35411e-05 1.04182 0
14800 1 5.06538 -5.85807 0.0134611 0.00350354 6.59926e-06 -1.32296e-05 1.04189 0
14333 1 5.21991 -5.93404 0.01272 0.00298393 6.22356e-06 -1.52365e-05 1.04167 0
14802 1 5.07629 -5.69984 0.0138921 0.00382316 3.96083e-06 -1.49398e-05 1.04182 0
14805 1 5.21978 -5.76621 0.0134314 0.00344606 4.59686e-06 -1.61625e-05 1.04163 0
14352 1 5.23346 -5.59628 0.0138743 0.00375659 3.69633e-06 -1.66939e-05 1.04159 0
14335 1 5.35954 -5.86315 0.0126854 0.00293183 4.65944e-06 -1.66617e-05 1.04143 0
14354 1 5.36466 -5.68384 0.0134028 0.00336705 4.21268e-06 -1.68421e-05 1.04142 0
14337 1 5.41713 -6.00798 0.0116722 0.00236454 4.86359e-06 -1.63339e-05 1.04136 0
14336 1 5.57246 -5.95455 0.0115448 0.00227186 4.38589e-06 -1.66121e-05 1.04117 0
14356 1 5.49981 -5.62144 0.0133332 0.00324631 4.77678e-06 -1.63061e-05 1.04128 0
14344 1 5.65324 -5.79052 0.0122724 0.00258668 4.91825e-06 -1.63295e-05 1.04113 0
14338 1 5.49872 -5.80158 0.0126124 0.00284188 4.46973e-06 -1.68292e-05 1.04127 0
14343 1 5.64758 -5.63529 0.0129818 0.00294389 5.45952e-06 -1.56782e-05 1.04116 0
14340 1 5.74513 -5.90081 0.0114001 0.00214286 4.84668e-06 -1.6125e-05 1.04102 0
14339 1 5.80015 -5.66842 0.012521 0.00259919 6.02498e-06 -1.50894e-05 1.04103 0
14341 1 5.84086 -6.00655 0.0104152 0.00170846 4.65578e-06 -1.55369e-05 1.04092 0
14330 1 5.99152 -6.05154 0.00968511 0.00140305 4.5499e-06 -1.45878e-05 1.04079 0
14345 1 5.99132 -5.89636 0.010811 0.00179029 5.4039e-06 -1.48331e-05 1.04082 0
14342 1 5.87531 -5.79525 0.0117056 0.0021979 5.71255e-06 -1.52876e-05 1.04094 0
14346 1 6.04019 -5.73107 0.011705 0.00207154 6.38413e-06 -1.41539e-05 1.04082 0
13989 1 6.15672 -5.97517 0.0098927 0.00140564 4.81482e-06 -1.37006e-05 1.04069 0
14348 1 6.16439 -5.82245 0.0109178 0.00171552 5.8118e-06 -1.36568e-05 1.04071 0
13991 1 6.22315 -5.65975 0.0117466 0.00192044 6.75263e-06 -1.28937e-05 1.04071 0
14350 1 6.33353 -5.7635 0.0109706 0.00159948 5.79024e-06 -1.24993e-05 1.04061 0
14349 1 6.32184 -5.92277 0.00994884 0.00133427 4.62084e-06 -1.25423e-05 1.04059 0
13976 1 6.45508 -5.98397 0.00927226 0.00108654 3.32832e-06 -1.12926e-05 1.0405 0
13990 1 6.48005 -5.78682 0.0105925 0.0013827 4.94532e-06 -1.14646e-05 1.04052 0
13988 1 6.55034 -5.62896 0.0114198 0.00150692 5.82342e-06 -1.09269e-05 1.04052 0
13994 1 6.59798 -5.86428 0.00991248 0.00113993 3.49432e-06 -1.03792e-05 1.04044 0
13992 1 6.68205 -5.67995 0.0109679 0.00128249 4.65319e-06 -1.00333e-05 1.04044 0
13980 1 6.68599 -5.98419 0.00893915 0.000884125 1.5549e-06 -9.08751e-06 1.04039 0
13998 1 6.76469 -5.80179 0.0101186 0.00105314 2.93636e-06 -9.13968e-06 1.04037 0
13987 1 6.97517 -5.95129 0.00887592 0.000699639 -4.30869e-07 -6.42621e-06 1.04028 0
13642 1 6.83445 -5.94644 0.00904597 0.000815639 7.43042e-07 -7.84406e-06 1.04033 0
13996 1 6.92332 -5.77038 0.0101602 0.000930013 2.06068e-06 -7.85118e-06 1.04031 0
13999 1 7.061 -5.69384 0.0105289 0.000859452 1.82505e-06 -6.98112e-06 1.04027 0
14002 1 7.11576 -5.83626 0.0095731 0.000700092 -5.2785e-08 -5.84957e-06 1.04023 0
13663 1 7.21972 -5.64422 0.0107305 0.000736281 1.18838e-06 -5.988e-06 1.04022 0
13662 1 7.11618 -6.00186 0.00839452 0.000549549 -2.05062e-06 -4.79283e-06 1.04023 0