ITEM: TIMESTEP
71000
ITEM: NUMBER OF ATOMS
13003
ITEM: BOX BOUNDS ff ff pp
0.0000000000000000e+00 2.2000000000000000e+01
-1.0000000000000000e+01 1.0000000000000000e+01
-2.0000000000000000e-02 2.0000000000000000e-02
ITEM: ATOMS id type x y vx vy fx fy c_den c_phase
1501 2 2 -10 0 0 0 0 1 5
1535 2 2 -9.8 0 0 0 0 1 5
1569 2 2 -9.6 0 0 0 0 1 5
1502 2 2.2 -10 0 0 0 0 1 5
1503 2 2.4 -10 0 0 0 0 1 5
1536 2 2.2 -9.8 0 0 0 0 1 5
1537 2 2.4 -9.8 0 0 0 0 1 5
1570 2 2.2 -9.6 0 0 0 0 1 5
1571 2 2.4 -9.6 0 0 0 0 1 5
1504 2 2.6 -10 0 0 0 0 1 5
1505 2 2.8 -10 0 0 0 0 1 5
1538 2 2.6 -9.8 0 0 0 0 1 5
1539 2 2.8 -9.8 0 0 0 0 1 5
1572 2 2.6 -9.6 0 0 0 0 1 5
1573 2 2.8 -9.6 0 0 0 0 1 5
1506 2 3 -10 0 0 0 0 1 5
1540 2 3 -9.8 0 0 0 0 1 5
1574 2 3 -9.6 0 0 0 0 1 5
1507 2 3.2 -10 0 0 0 0 1 5
1541 2 3.2 -9.8 0 0 0 0 1 5
1575 2 3.2 -9.6 0 0 0 0 1 5
1508 2 3.4 -10 0 0 0 0 1 5
1542 2 3.4 -9.8 0 0 0 0 1 5
1576 2 3.4 -9.6 0 0 0 0 1 5
1509 2 3.6 -10 0 0 0 0 1 5
1543 2 3.6 -9.8 0 0 0 0 1 5
1577 2 3.6 -9.6 0 0 0 0 1 5
1510 2 3.8 -10 0 0 0 0 1 5
1544 2 3.8 -9.8 0 0 0 0 1 5
1578 2 3.8 -9.6 0 0 0 0 1 5
1511 2 4 -10 0 0 0 0 1 5
1512 2 4.2 -10 0 0 0 0 1 5
1545 2 4 -9.8 0 0 0 0 1 5
1546 2 4.2 -9.8 0 0 0 0 1 5
1579 2 4 -9.6 0 0 0 0 1 5
1580 2 4.2 -9.6 0 0 0 0 1 5
1513 2 4.4 -10 0 0 0 0 1 5
1514 2 4.6 -10 0 0 0 0 1 5
1547 2 4.4 -9.8 0 0 0 0 1 5
1548 2 4.6 -9.8 0 0 0 0 1 5
1581 2 4.4 -9.6 0 0 0 0 1 5
1582 2 4.6 -9.6 0 0 0 0 1 5
1515 2 4.8 -10 0 0 0 0 1 5
1516 2 5 -10 0 0 0 0 1 5
1549 2 4.8 -9.8 0 0 0 0 1 5
1550 2 5 -9.8 0 0 0 0 1 5
1583 2 4.8 -9.6 0 0 0 0 1 5
1584 2 5 -9.6 0 0 0 0 1 5
1517 2 5.2 -10 0 0 0 0 1 5
1518 2 5.4 -10 0 0 0 0 1 5
1551 2 5.2 -9.8 0 0 0 0 1 5
1552 2 5.4 -9.8 0 0 0 0 1 5
1585 2 5.2 -9.6 0 0 0 0 1 5
1586 2 5.4 -9.6 0 0 0 0 1 5
1519 2 5.6 -10 0 0 0 0 1 5
1553 2 5.6 -9.8 0 0 0 0 1 5
1587 2 5.6 -9.6 0 0 0 0 1 5
1520 2 5.8 -10 0 0 0 0 1 5
1554 2 5.8 -9.8 0 0 0 0 1 5
1588 2 5.8 -9.6 0 0 0 0 1 5
1521 2 6 -10 0 0 0 0 1 5
1555 2 6 -9.8 0 0 0 0 1 5
1589 2 6 -9.6 0 0 0 0 1 5
1522 2 6.2 -10 0 0 0 0 1 5
1523 2 6.4 -10 0 0 0 0 1 5
1556 2 6.2 -9.8 0 0 0 0 1 5
1557 2 6.4 -9.8 0 0 0 0 1 5
1590 2 6.2 -9.6 0 0 0 0 1 5
1591 2 6.4 -9.6 0 0 0 0 1 5
1524 2 6.6 -10 0 0 0 0 1 5
1525 2 6.8 -10 0 0 0 0 1 5
1558 2 6.6 -9.8 0 0 0 0 1 5
1559 2 6.8 -9.8 0 0 0 0 1 5
1592 2 6.6 -9.6 0 0 0 0 1 5
1593 2 6.8 -9.6 0 0 0 0 1 5
1526 2 7 -10 0 0 0 0 1 5
1527 2 7.2 -10 0 0 0 0 1 5
1560 2 7 -9.8 0 0 0 0 1 5
1561 2 7.2 -9.8 0 0 0 0 1 5
1594 2 7 -9.6 0 0 0 0 1 5
1595 2 7.2 -9.6 0 0 0 0 1 5
1603 2 2 -9.4 0 0 0 0 1 5
1637 2 2 -9.2 0 0 0 0 1 5
1604 2 2.2 -9.4 0 0 0 0 1 5
1605 2 2.4 -9.4 0 0 0 0 1 5
1638 2 2.2 -9.2 0 0 0 0 1 5
1639 2 2.4 -9.2 0 0 0 0 1 5
1606 2 2.6 -9.4 0 0 0 0 1 5
1607 2 2.8 -9.4 0 0 0 0 1 5
1640 2 2.6 -9.2 0 0 0 0 1 5
1641 2 2.8 -9.2 0 0 0 0 1 5
1608 2 3 -9.4 0 0 0 0 1 5
1642 2 3 -9.2 0 0 0 0 1 5
1609 2 3.2 -9.4 0 0 0 0 1 5
1643 2 3.2 -9.2 0 0 0 0 1 5
1610 2 3.4 -9.4 0 0 0 0 1 5
1644 2 3.4 -9.2 0 0 0 0 1 5
1611 2 3.6 -9.4 0 0 0 0 1 5
1645 2 3.6 -9.2 0 0 0 0 1 5
1612 2 3.8 -9.4 0 0 0 0 1 5
1646 2 3.8 -9.2 0 0 0 0 1 5
1613 2 4 -9.4 0 0 0 0 1 5
1614 2 4.2 -9.4 0 0 0 0 1 5
1647 2 4 -9.2 0 0 0 0 1 5
1648 2 4.2 -9.2 0 0 0 0 1 5
1615 2 4.4 -9.4 0 0 0 0 1 5
1616 2 4.6 -9.4 0 0 0 0 1 5
1649 2 4.4 -9.2 0 0 0 0 1 5
1650 2 4.6 -9.2 0 0 0 0 1 5
1617 2 4.8 -9.4 0 0 0 0 1 5
1618 2 5 -9.4 0 0 0 0 1 5
1651 2 4.8 -9.2 0 0 0 0 1 5
1652 2 5 -9.2 0 0 0 0 1 5
1619 2 5.2 -9.4 0 0 0 0 1 5
1620 2 5.4 -9.4 0 0 0 0 1 5
1653 2 5.2 -9.2 0 0 0 0 1 5
1654 2 5.4 -9.2 0 0 0 0 1 5
1621 2 5.6 -9.4 0 0 0 0 1 5
1655 2 5.6 -9.2 0 0 0 0 1 5
1622 2 5.8 -9.4 0 0 0 0 1 5
1656 2 5.8 -9.2 0 0 0 0 1 5
1623 2 6 -9.4 0 0 0 0 1 5
1657 2 6 -9.2 0 0 0 0 1 5
1624 2 6.2 -9.4 0 0 0 0 1 5
1625 2 6.4 -9.4 0 0 0 0 1 5
1658 2 6.2 -9.2 0 0 0 0 1 5
1659 2 6.4 -9.2 0 0 0 0 1 5
1626 2 6.6 -9.4 0 0 0 0 1 5
1627 2 6.8 -9.4 0 0 0 0 1 5
1660 2 6.6 -9.2 0 0 0 0 1 5
1661 2 6.8 -9.2 0 0 0 0 1 5
1628 2 7 -9.4 0 0 0 0 1 5
1629 2 7.2 -9.4 0 0 0 0 1 5
1662 2 7 -9.2 0 0 0 0 1 5
1663 2 7.2 -9.2 0 0 0 0 1 5
1671 2 2 -9 0 0 0 0 1 5
1705 2 2 -8.8 0 0 0 0 1 5
1672 2 2.2 -9 0 0 0 0 1 5
1673 2 2.4 -9 0 0 0 0 1 5
1706 2 2.2 -8.8 0 0 0 0 1 5
1707 2 2.4 -8.8 0 0 0 0 1 5
1674 2 2.6 -9 0 0 0 0 1 5
1675 2 2.8 -9 0 0 0 0 1 5
1708 2 2.6 -8.8 0 0 0 0 1 5
1709 2 2.8 -8.8 0 0 0 0 1 5
1676 2 3 -9 0 0 0 0 1 5
1710 2 3 -8.8 0 0 0 0 1 5
1677 2 3.2 -9 0 0 0 0 1 5
1711 2 3.2 -8.8 0 0 0 0 1 5
1678 2 3.4 -9 0 0 0 0 1 5
1712 2 3.4 -8.8 0 0 0 0 1 5
1679 2 3.6 -9 0 0 0 0 1 5
1713 2 3.6 -8.8 0 0 0 0 1 5
1680 2 3.8 -9 0 0 0 0 1 5
1714 2 3.8 -8.8 0 0 0 0 1 5
1681 2 4 -9 0 0 0 0 1 5
1682 2 4.2 -9 0 0 0 0 1 5
1715 2 4 -8.8 0 0 0 0 1 5
1716 2 4.2 -8.8 0 0 0 0 1 5
1683 2 4.4 -9 0 0 0 0 1 5
1684 2 4.6 -9 0 0 0 0 1 5
1717 2 4.4 -8.8 0 0 0 0 1 5
1718 2 4.6 -8.8 0 0 0 0 1 5
1685 2 4.8 -9 0 0 0 0 1 5
1686 2 5 -9 0 0 0 0 1 5
1719 2 4.8 -8.8 0 0 0 0 1 5
1720 2 5 -8.8 0 0 0 0 1 5
1687 2 5.2 -9 0 0 0 0 1 5
1688 2 5.4 -9 0 0 0 0 1 5
1721 2 5.2 -8.8 0 0 0 0 1 5
1722 2 5.4 -8.8 0 0 0 0 1 5
1689 2 5.6 -9 0 0 0 0 1 5
1723 2 5.6 -8.8 0 0 0 0 1 5
1690 2 5.8 -9 0 0 0 0 1 5
1724 2 5.8 -8.8 0 0 0 0 1 5
1691 2 6 -9 0 0 0 0 1 5
1725 2 6 -8.8 0 0 0 0 1 5
1692 2 6.2 -9 0 0 0 0 1 5
1693 2 6.4 -9 0 0 0 0 1 5
1726 2 6.2 -8.8 0 0 0 0 1 5
1727 2 6.4 -8.8 0 0 0 0 1 5
1694 2 6.6 -9 0 0 0 0 1 5
1695 2 6.8 -9 0 0 0 0 1 5
1728 2 6.6 -8.8 0 0 0 0 1 5
1729 2 6.8 -8.8 0 0 0 0 1 5
1696 2 7 -9 0 0 0 0 1 5
1697 2 7.2 -9 0 0 0 0 1 5
1730 2 7 -8.8 0 0 0 0 1 5
1731 2 7.2 -8.8 0 0 0 0 1 5
1739 2 2 -8.6 0 0 0 0 1 5
1773 2 2 -8.4 0 0 0 0 1 5
1740 2 2.2 -8.6 0 0 0 0 1 5
1741 2 2.4 -8.6 0 0 0 0 1 5
1774 2 2.2 -8.4 0 0 0 0 1 5
1775 2 2.4 -8.4 0 0 0 0 1 5
1742 2 2.6 -8.6 0 0 0 0 1 5
1743 2 2.8 -8.6 0 0 0 0 1 5
1776 2 2.6 -8.4 0 0 0 0 1 5
1777 2 2.8 -8.4 0 0 0 0 1 5
1744 2 3 -8.6 0 0 0 0 1 5
1778 2 3 -8.4 0 0 0 0 1 5
1745 2 3.2 -8.6 0 0 0 0 1 5
1779 2 3.2 -8.4 0 0 0 0 1 5
1746 2 3.4 -8.6 0 0 0 0 1 5
1780 2 3.4 -8.4 0 0 0 0 1 5
1747 2 3.6 -8.6 0 0 0 0 1 5
1781 2 3.6 -8.4 0 0 0 0 1 5
1748 2 3.8 -8.6 0 0 0 0 1 5
1782 2 3.8 -8.4 0 0 0 0 1 5
1749 2 4 -8.6 0 0 0 0 1 5
1750 2 4.2 -8.6 0 0 0 0 1 5
1783 2 4 -8.4 0 0 0 0 1 5
1784 2 4.2 -8.4 0 0 0 0 1 5
1751 2 4.4 -8.6 0 0 0 0 1 5
1752 2 4.6 -8.6 0 0 0 0 1 5
1785 2 4.4 -8.4 0 0 0 0 1 5
1786 2 4.6 -8.4 0 0 0 0 1 5
1753 2 4.8 -8.6 0 0 0 0 1 5
1754 2 5 -8.6 0 0 0 0 1 5
1787 2 4.8 -8.4 0 0 0 0 1 5
1788 2 5 -8.4 0 0 0 0 1 5
1755 2 5.2 -8.6 0 0 0 0 1 5
1756 2 5.4 -8.6 0 0 0 0 1 5
1789 2 5.2 -8.4 0 0 0 0 1 5
1790 2 5.4 -8.4 0 0 0 0 1 5
1757 2 5.6 -8.6 0 0 0 0 1 5
1791 2 5.6 -8.4 0 0 0 0 1 5
1758 2 5.8 -8.6 0 0 0 0 1 5
1792 2 5.8 -8.4 0 0 0 0 1 5
1759 2 6 -8.6 0 0 0 0 1 5
1793 2 6 -8.4 0 0 0 0 1 5
1760 2 6.2 -8.6 0 0 0 0 1 5
1761 2 6.4 -8.6 0 0 0 0 1 5
1794 2 6.2 -8.4 0 0 0 0 1 5
1795 2 6.4 -8.4 0 0 0 0 1 5
1762 2 6.6 -8.6 0 0 0 0 1 5
1763 2 6.8 -8.6 0 0 0 0 1 5
1796 2 6.6 -8.4 0 0 0 0 1 5
1797 2 6.8 -8.4 0 0 0 0 1 5
1764 2 7 -8.6 0 0 0 0 1 5
1765 2 7.2 -8.6 0 0 0 0 1 5
1798 2 7 -8.4 0 0 0 0 1 5
1799 2 7.2 -8.4 0 0 0 0 1 5
1807 2 2 -8.2 0 0 0 0 1 5
1841 2 2 -8 0 0 0 0 1 5
1808 2 2.2 -8.2 0 0 0 0 1 5
1809 2 2.4 -8.2 0 0 0 0 1 5
1842 2 2.2 -8 0 0 0 0 1 5
1843 2 2.4 -8 0 0 0 0 1 5
1810 2 2.6 -8.2 0 0 0 0 1 5
1811 2 2.8 -8.2 0 0 0 0 1 5
1844 2 2.6 -8 0 0 0 0 1 5
1845 2 2.8 -8 0 0 0 0 1 5
1812 2 3 -8.2 0 0 0 0 1 5
1846 2 3 -8 0 0 0 0 1 5
1813 2 3.2 -8.2 0 0 0 0 1 5
1847 2 3.2 -8 0 0 0 0 1 5
1814 2 3.4 -8.2 0 0 0 0 1 5
1848 2 3.4 -8 0 0 0 0 1 5
1815 2 3.6 -8.2 0 0 0 0 1 5
1849 2 3.6 -8 0 0 0 0 1 5
1816 2 3.8 -8.2 0 0 0 0 1 5
1850 2 3.8 -8 0 0 0 0 1 5
1817 2 4 -8.2 0 0 0 0 1 5
1818 2 4.2 -8.2 0 0 0 0 1 5
1851 2 4 -8 0 0 0 0 1 5
1852 2 4.2 -8 0 0 0 0 1 5
1819 2 4.4 -8.2 0 0 0 0 1 5
1820 2 4.6 -8.2 0 0 0 0 1 5
1853 2 4.4 -8 0 0 0 0 1 5
1854 2 4.6 -8 0 0 0 0 1 5
1821 2 4.8 -8.2 0 0 0 0 1 5
1822 2 5 -8.2 0 0 0 0 1 5
1855 2 4.8 -8 0 0 0 0 1 5
1856 2 5 -8 0 0 0 0 1 5
1823 2 5.2 -8.2 0 0 0 0 1 5
1824 2 5.4 -8.2 0 0 0 0 1 5
1857 2 5.2 -8 0 0 0 0 1 5
1858 2 5.4 -8 0 0 0 0 1 5
1825 2 5.6 -8.2 0 0 0 0 1 5
1859 2 5.6 -8 0 0 0 0 1 5
1826 2 5.8 -8.2 0 0 0 0 1 5
1860 2 5.8 -8 0 0 0 0 1 5
1827 2 6 -8.2 0 0 0 0 1 5
1861 2 6 -8 0 0 0 0 1 5
1828 2 6.2 -8.2 0 0 0 0 1 5
1829 2 6.4 -8.2 0 0 0 0 1 5
1862 2 6.2 -8 0 0 0 0 1 5
1863 2 6.4 -8 0 0 0 0 1 5
1830 2 6.6 -8.2 0 0 0 0 1 5
1831 2 6.8 -8.2 0 0 0 0 1 5
1864 2 6.6 -8 0 0 0 0 1 5
1865 2 6.8 -8 0 0 0 0 1 5
1832 2 7 -8.2 0 0 0 0 1 5
1833 2 7.2 -8.2 0 0 0 0 1 5
1866 2 7 -8 0 0 0 0 1 5
1867 2 7.2 -8 0 0 0 0 1 5
1875 2 2 -7.8 0 0 0 0 1 5
1909 2 2 -7.6 0 0 0 0 1 5
1943 2 2 -7.4 0 0 0 0 1.00027 5
1876 2 2.2 -7.8 0 0 0 0 1 5
1877 2 2.4 -7.8 0 0 0 0 1 5
1910 2 2.2 -7.6 0 0 0 0 1 5
1911 2 2.4 -7.6 0 0 0 0 1 5
1944 2 2.2 -7.4 0 0 0 0 1.00101 5
1945 2 2.4 -7.4 0 0 0 0 0.99852 5
1878 2 2.6 -7.8 0 0 0 0 1 5
1879 2 2.8 -7.8 0 0 0 0 1 5
1912 2 2.6 -7.6 0 0 0 0 1 5
1913 2 2.8 -7.6 0 0 0 0 1 5
1946 2 2.6 -7.4 0 0 0 0 1.00111 5
1947 2 2.8 -7.4 0 0 0 0 1.00105 5
1880 2 3 -7.8 0 0 0 0 1 5
1914 2 3 -7.6 0 0 0 0 1 5
1948 2 3 -7.4 0 0 0 0 0.997608 5
1881 2 3.2 -7.8 0 0 0 0 1 5
1915 2 3.2 -7.6 0 0 0 0 1 5
1949 2 3.2 -7.4 0 0 0 0 1.00051 5
1882 2 3.4 -7.8 0 0 0 0 1 5
1916 2 3.4 -7.6 0 0 0 0 1 5
1950 2 3.4 -7.4 0 0 0 0 1.0084 5
1883 2 3.6 -7.8 0 0 0 0 1 5
1917 2 3.6 -7.6 0 0 0 0 1 5
1951 2 3.6 -7.4 0 0 0 0 0.999668 5
1884 2 3.8 -7.8 0 0 0 0 1 5
1918 2 3.8 -7.6 0 0 0 0 1 5
1952 2 3.8 -7.4 0 0 0 0 1.04239 5
1885 2 4 -7.8 0 0 0 0 1 5
1886 2 4.2 -7.8 0 0 0 0 1 5
1919 2 4 -7.6 0 0 0 0 1 5
1920 2 4.2 -7.6 0 0 0 0 1 5
1953 2 4 -7.4 0 0 0 0 1.04172 5
1954 2 4.2 -7.4 0 0 0 0 1.04348 5
1887 2 4.4 -7.8 0 0 0 0 1 5
1888 2 4.6 -7.8 0 0 0 0 1 5
1921 2 4.4 -7.6 0 0 0 0 1 5
1922 2 4.6 -7.6 0 0 0 0 1 5
1955 2 4.4 -7.4 0 0 0 0 1.03896 5
1956 2 4.6 -7.4 0 0 0 0 1.03774 5
1889 2 4.8 -7.8 0 0 0 0 1 5
1890 2 5 -7.8 0 0 0 0 1 5
1923 2 4.8 -7.6 0 0 0 0 1 5
1924 2 5 -7.6 0 0 0 0 1 5
1957 2 4.8 -7.4 0 0 0 0 1.03882 5
1958 2 5 -7.4 0 0 0 0 1.03814 5
1891 2 5.2 -7.8 0 0 0 0 1 5
1892 2 5.4 -7.8 0 0 0 0 1 5
1925 2 5.2 -7.6 0 0 0 0 1 5
1926 2 5.4 -7.6 0 0 0 0 1 5
1959 2 5.2 -7.4 0 0 0 0 1.03819 5
1960 2 5.4 -7.4 0 0 0 0 1.03829 5
1893 2 5.6 -7.8 0 0 0 0 1 5
1927 2 5.6 -7.6 0 0 0 0 1 5
1961 2 5.6 -7.4 0 0 0 0 1.03822 5
1894 2 5.8 -7.8 0 0 0 0 1 5
1928 2 5.8 -7.6 0 0 0 0 1 5
1962 2 5.8 -7.4 0 0 0 0 1.0382 5
1895 2 6 -7.8 0 0 0 0 1 5
1929 2 6 -7.6 0 0 0 0 1 5
1963 2 6 -7.4 0 0 0 0 1.03822 5
1896 2 6.2 -7.8 0 0 0 0 1 5
1897 2 6.4 -7.8 0 0 0 0 1 5
1930 2 6.2 -7.6 0 0 0 0 1 5
1931 2 6.4 -7.6 0 0 0 0 1 5
1964 2 6.2 -7.4 0 0 0 0 1.03817 5
1965 2 6.4 -7.4 0 0 0 0 1.0379 5
1898 2 6.6 -7.8 0 0 0 0 1 5
1899 2 6.8 -7.8 0 0 0 0 1 5
1932 2 6.6 -7.6 0 0 0 0 1 5
1933 2 6.8 -7.6 0 0 0 0 1 5
1966 2 6.6 -7.4 0 0 0 0 1.03796 5
1967 2 6.8 -7.4 0 0 0 0 1.03808 5
1900 2 7 -7.8 0 0 0 0 1 5
1901 2 7.2 -7.8 0 0 0 0 1 5
1934 2 7 -7.6 0 0 0 0 1 5
1935 2 7.2 -7.6 0 0 0 0 1 5
1968 2 7 -7.4 0 0 0 0 1.0384 5
1969 2 7.2 -7.4 0 0 0 0 1.03814 5
1977 2 2 -7.2 0 0 0 0 1.00118 5
2011 2 2 -7 0 0 0 0 1.00129 5
1978 2 2.2 -7.2 0 0 0 0 0.998893 5
1979 2 2.4 -7.2 0 0 0 0 0.998254 5
2012 2 2.2 -7 0 0 0 0 0.999213 5
2013 2 2.4 -7 0 0 0 0 0.999016 5
1980 2 2.6 -7.2 0 0 0 0 1.00059 5
1981 2 2.8 -7.2 0 0 0 0 1.00036 5
2014 2 2.6 -7 0 0 0 0 1.00018 5
2015 2 2.8 -7 0 0 0 0 1.00018 5
1982 2 3 -7.2 0 0 0 0 0.99912 5
2016 2 3 -7 0 0 0 0 0.999586 5
1983 2 3.2 -7.2 0 0 0 0 0.999566 5
2017 2 3.2 -7 0 0 0 0 0.9998 5
1984 2 3.4 -7.2 0 0 0 0 1.00164 5
2018 2 3.4 -7 0 0 0 0 1.00109 5
1985 2 3.6 -7.2 0 0 0 0 1.00514 5
2019 2 3.6 -7 0 0 0 0 1.0062 5
1986 2 3.8 -7.2 0 0 0 0 1.03116 5
2020 2 3.8 -7 0 0 0 0 1.02585 5
1987 2 4 -7.2 0 0 0 0 1.03532 5
1988 2 4.2 -7.2 0 0 0 0 1.03466 5
2021 2 4 -7 0 0 0 0 1.0317 5
2022 2 4.2 -7 0 0 0 0 1.03375 5
1989 2 4.4 -7.2 0 0 0 0 1.04174 5
1990 2 4.6 -7.2 0 0 0 0 1.04034 5
2023 2 4.4 -7 0 0 0 0 1.04293 5
2024 2 4.6 -7 0 0 0 0 1.04199 5
1991 2 4.8 -7.2 0 0 0 0 1.03944 5
1992 2 5 -7.2 0 0 0 0 1.03924 5
2025 2 4.8 -7 0 0 0 0 1.04027 5
2026 2 5 -7 0 0 0 0 1.04 5
1993 2 5.2 -7.2 0 0 0 0 1.03925 5
1994 2 5.4 -7.2 0 0 0 0 1.03914 5
2027 2 5.2 -7 0 0 0 0 1.04006 5
2028 2 5.4 -7 0 0 0 0 1.03991 5
1995 2 5.6 -7.2 0 0 0 0 1.0391 5
2029 2 5.6 -7 0 0 0 0 1.03982 5
1996 2 5.8 -7.2 0 0 0 0 1.03915 5
2030 2 5.8 -7 0 0 0 0 1.03989 5
1997 2 6 -7.2 0 0 0 0 1.03918 5
2031 2 6 -7 0 0 0 0 1.03988 5
1998 2 6.2 -7.2 0 0 0 0 1.03908 5
1999 2 6.4 -7.2 0 0 0 0 1.03899 5
2032 2 6.2 -7 0 0 0 0 1.03979 5
2033 2 6.4 -7 0 0 0 0 1.03974 5
2000 2 6.6 -7.2 0 0 0 0 1.03899 5
2001 2 6.8 -7.2 0 0 0 0 1.03899 5
2034 2 6.6 -7 0 0 0 0 1.03965 5
2035 2 6.8 -7 0 0 0 0 1.03961 5
2002 2 7 -7.2 0 0 0 0 1.03906 5
2003 2 7.2 -7.2 0 0 0 0 1.0391 5
2036 2 7 -7 0 0 0 0 1.03967 5
2037 2 7.2 -7 0 0 0 0 1.0398 5
15011 1 0.596588 -6.75993 0.02 0 0 0 1 2
15012 1 0.409518 -6.55978 0.02 0 0 0 1 2
15013 1 0.610198 -6.56879 0.02 0 0 0 1 2
15014 1 0.797031 -6.73563 0.02 0 0 0 1 2
15016 1 0.812963 -6.55292 0.02 0 0 0 1 2
15015 1 0.993693 -6.75328 0.02 0 0 0 1 2
15017 1 1.01781 -6.5679 0.02 0 0 0 1 2
15018 1 1.19193 -6.73604 0.02 0 0 0 1 2
15020 1 1.23091 -6.56301 0.02 0 -6.8749e-13 -2.41664e-13 1 2
15019 1 1.39818 -6.76867 0.02 0 -1.22598e-06 -8.60087e-07 1 2
15021 1 1.42982 -6.58096 0.02 0 4.22877e-09 4.88844e-08 1 2
15022 1 1.60654 -6.73157 0.02 0 -0.000204755 -7.18966e-05 1 2
15024 1 1.62808 -6.55022 0.02 0 -1.19302e-06 2.19753e-05 1 2
15023 1 1.80272 -6.74733 0.02 0 -0.00225958 -0.000712511 1 2
15025 1 1.83255 -6.56511 0.02 0 -6.11382e-05 0.00026698 1 2
15026 1 2.00311 -6.75542 0.02 0 -0.00363682 -0.000844382 1 2
15028 1 2.05392 -6.5848 0.02 0 -6.04537e-05 0.000679722 1 2
14629 1 2.42507 -6.74131 0.02 0 -0.00258693 -0.000511934 1 2
14628 1 2.46046 -6.55585 0.02 0 0.000169449 0.000525338 1 2
15027 1 2.22113 -6.7563 0.02 0 -0.00330065 -0.000617751 1 2
15029 1 2.2599 -6.5739 0.02 0 4.51506e-05 0.000551366 1 2
14630 1 2.62072 -6.73288 0.02 0 -0.00250529 -0.000552046 1 2
14631 1 2.81797 -6.75405 0.02 0 -0.00303349 -0.000499149 1 2
14632 1 2.65902 -6.55059 0.02 0 0.000180942 0.000538629 1 2
14633 1 2.8478 -6.56092 0.02 0 0.000132212 0.000498373 1 2
14634 1 3.01492 -6.73507 0.02 0 -0.00238033 -0.000453723 1 2
14635 1 3.20919 -6.74316 0.02 0 -0.00292214 -0.000431446 1 2
14636 1 3.03843 -6.5457 0.02 0 0.000172102 0.000454284 1 2
14637 1 3.23078 -6.54895 0.02 0 0.000172803 0.000463327 1 2
14638 1 3.39996 -6.72408 0.02 0 -0.00239233 -0.000310948 1 2
14639 1 3.59257 -6.75776 0.02 0 -0.00382343 0.000138859 1 2
14640 1 3.42933 -6.54144 0.02 0 0.000189153 0.00052185 1 2
14641 1 3.63191 -6.57579 0.02 0 -0.000818074 0.000726889 1 2
14789 1 3.80081 -6.75322 0.02 0 -0.00748792 0.000241144 1 2
14791 1 3.83078 -6.57351 0.02 0 -0.00431937 0.000806051 1 2
14790 1 4.00033 -6.77409 0.0166238 7.18168e-05 -0.0135047 0.000287267 1.01891 0
14792 1 4.00012 -6.57127 0.0177966 0.000477137 -0.00881358 0.00190855 1.01631 0
14793 1 4.00006 -6.79409 0.0164552 7.37303e-05 -0.0141793 0.000294921 1.0426 0
14794 1 4.20371 -6.4697 0.00985397 0.00271288 -0.000230184 0.000262977 1.04981 0
14312 1 4.23433 -6.66748 0.0076769 0.00215262 0.000414133 0.00030116 1.04787 0
14314 1 4.33122 -6.47824 0.00983666 0.00267198 2.27547e-05 9.26274e-05 1.04798 0
14313 1 4.34245 -6.68318 0.00665643 0.000554935 0.00022907 9.93194e-05 1.04713 0
14316 1 4.44581 -6.6031 0.00879253 0.00117059 9.24643e-05 2.99679e-05 1.04363 0
14317 1 4.08999 -6.83496 0.00466101 -0.000676355 0.00102609 -3.00907e-05 1.05036 0
14319 1 4.10612 -6.58807 0.0102892 0.00289132 0.000288565 0.000494227 1.04378 0
14322 1 4.06773 -6.60372 0.0105664 0.00251684 0.000349641 0.000400751 1.04023 0
14320 1 4.57294 -6.62125 0.00794372 0.000905063 5.2633e-05 7.73064e-06 1.04097 0
14321 1 4.68144 -6.51398 0.00928974 0.00147752 4.88439e-05 3.487e-06 1.04005 0
14324 1 4.46927 -6.80287 0.00394047 -0.00121932 6.80544e-05 1.05429e-05 1.04617 0
14328 1 4.77708 -6.6105 0.00683956 0.00083742 3.61305e-05 -5.77379e-07 1.03975 0
14325 1 4.90862 -6.54082 0.00730463 0.000980361 3.22936e-05 -3.70696e-06 1.03979 0
13969 1 4.6482 -6.75811 0.00439651 -0.00022218 2.84716e-05 -8.727e-07 1.04198 0
13971 1 4.8075 -6.76067 0.00350926 -0.0001998 2.12855e-05 -4.68634e-06 1.04116 0
13975 1 5.04538 -6.60451 0.00544153 0.000573551 2.39542e-05 -5.24109e-06 1.03963 0
13970 1 5.21856 -6.50254 0.00641383 0.000733732 1.95072e-05 -5.94371e-06 1.03952 0
13979 1 4.95352 -6.73508 0.00334399 -6.76862e-05 1.88316e-05 -4.88207e-06 1.04049 0
13983 1 5.20336 -6.64623 0.0041198 0.000302404 1.6384e-05 -5.22116e-06 1.0395 0
13644 1 5.09765 -6.7954 0.0020966 -0.000570182 1.26784e-05 -4.74783e-06 1.04153 0
13649 1 5.36599 -6.61645 0.00422259 0.000329756 1.23026e-05 -4.77484e-06 1.0392 0
13274 1 5.29789 -6.78375 0.00198218 -0.000498314 8.89227e-06 -3.84885e-06 1.04109 0
13640 1 5.49617 -6.5321 0.00519505 0.000470343 9.72948e-06 -4.88556e-06 1.03908 0
13641 1 5.57802 -6.62451 0.00368585 0.000255569 6.83498e-06 -3.65768e-06 1.03904 0
13289 1 5.47966 -6.77545 0.00186464 -0.000439451 5.87141e-06 -2.92459e-06 1.04072 0
13276 1 5.70637 -6.62931 0.00340475 0.000225184 4.28736e-06 -2.96282e-06 1.03899 0
12949 1 5.68203 -6.79993 0.00146411 -0.000563643 3.11566e-06 -1.90026e-06 1.04093 0
13280 1 5.83709 -6.58498 0.00382369 0.000279812 2.21821e-06 -2.66588e-06 1.03887 0
12936 1 5.92913 -6.65637 0.00273077 0.000138118 1.16888e-06 -1.78781e-06 1.03901 0
12953 1 6.06971 -6.63953 0.00281327 0.000145636 -3.77308e-07 -1.33667e-06 1.03891 0
12617 1 5.92397 -6.82165 0.00119981 -0.000647107 1.10109e-06 -9.66946e-07 1.04105 0
12604 1 6.21976 -6.64709 0.00258638 0.000106767 -1.4535e-06 -8.1048e-07 1.0389 0
11882 1 6.16644 -6.80479 0.00118429 -0.000545752 -3.15101e-07 -4.0291e-07 1.04079 0
12941 1 6.36429 -6.64678 0.00247899 9.46462e-05 -2.39148e-06 -4.29189e-07 1.03885 0
11544 1 6.51011 -6.64374 0.00241792 8.60152e-05 -3.23376e-06 -1.08624e-07 1.03885 0
11552 1 6.41362 -6.82493 0.00100206 -0.000716728 -1.00174e-06 3.76085e-08 1.04095 0
12288 1 6.66707 -6.58582 0.00300336 0.000157809 -4.91181e-06 3.00169e-07 1.03874 0
12601 1 6.81245 -6.59441 0.00284583 0.000143291 -5.47767e-06 6.50134e-07 1.03879 0
11164 1 6.6268 -6.75386 0.00136268 -0.000333586 -2.2115e-06 1.10601e-08 1.04005 0
12612 1 6.95987 -6.58418 0.00291533 0.000147546 -6.43478e-06 1.13517e-06 1.03878 0
11323 1 6.78669 -6.78102 0.00111347 -0.000559719 -2.34521e-06 2.289e-07 1.04067 0
10507 1 6.95176 -6.74891 0.00133345 -0.000358121 -3.42727e-06 5.10711e-07 1.04014 0
12292 1 7.1105 -6.57791 0.00295025 0.000145413 -7.41053e-06 1.7583e-06 1.03876 0
12295 1 7.24507 -6.60204 0.00268086 0.000123413 -7.69914e-06 2.14837e-06 1.03882 0
10519 1 7.10902 -6.76966 0.00114393 -0.000470617 -3.74264e-06 9.00274e-07 1.04048 0
13817 1 6.66786 -0.348723 0.0125866 0.000355833 -3.39131e-06 1.61425e-06 1.03881 0
10189 1 7.28093 -6.80201 0.000982617 -0.000663538 -3.88446e-06 1.18535e-06 1.04099 0
15030 1 0.439621 -6.37653 0.02 0 0 0 1 2
15031 1 0.589054 -6.18885 0.02 0 0 0 1 2
15032 1 0.640116 -6.37813 0.02 0 0 0 1 2
15035 1 0.791934 -6.1736 0.02 0 0 0 1 2
15033 1 0.835876 -6.36413 0.02 0 0 0 1 2
15034 1 1.03232 -6.38198 0.02 0 0 0 1 2
15036 1 0.993767 -6.19033 0.02 0 0 0 1 2
15037 1 1.2288 -6.38001 0.02 0 0 0 1 2
15039 1 1.19557 -6.1913 0.02 0 0 0 1 2
15038 1 1.42706 -6.39143 0.02 0 3.74829e-10 4.73377e-09 1 2
15040 1 1.40406 -6.20515 0.02 0 9.41965e-14 1.37378e-11 1 2
15041 1 1.6217 -6.36654 0.02 0 8.03733e-08 1.97865e-06 1 2
15043 1 1.63001 -6.18795 0.02 0 3.16765e-09 7.25603e-08 1 2
15042 1 1.81645 -6.375 0.02 0 4.82546e-06 2.09684e-05 1 2
15044 1 1.85468 -6.19302 0.02 0 2.72472e-07 2.49329e-06 1 2
15045 1 2.00797 -6.41149 0.02 0 7.50925e-05 0.000122466 1 2
15047 1 2.06075 -6.23015 0.02 0 4.80525e-06 1.18679e-05 1 2
14643 1 2.41885 -6.37194 0.02 0 0.0001063 0.000143116 1 2
14642 1 2.47481 -6.18665 0.02 0 6.05015e-06 1.27507e-05 1 2
15046 1 2.21432 -6.39413 0.02 0 0.000129968 0.000181925 1 2
15048 1 2.26716 -6.20621 0.02 0 8.49041e-06 1.66885e-05 1 2
14644 1 2.62683 -6.3674 0.02 0 9.37738e-05 0.000125708 1 2
14646 1 2.67642 -6.18267 0.02 0 5.26059e-06 1.15966e-05 1 2
14645 1 2.83566 -6.36328 0.02 0 8.57273e-05 0.000119415 1 2
14647 1 2.8677 -6.16039 0.02 0 3.53129e-06 8.17714e-06 1 2
14648 1 3.03124 -6.35019 0.02 0 7.08606e-05 0.000100021 1 2
14649 1 3.22276 -6.34812 0.02 0 6.94165e-05 9.83416e-05 1 2
14650 1 3.05664 -6.14888 0.02 0 2.86705e-06 6.67991e-06 1 2
14651 1 3.24468 -6.14239 0.02 0 2.4618e-06 5.57222e-06 1 2
14652 1 3.41451 -6.34864 0.02 0 6.14147e-05 9.98794e-05 1 2
14653 1 3.61356 -6.39314 0.02 0 -0.000641777 0.00017445 1 2
14654 1 3.43258 -6.14707 0.02 0 -4.37638e-07 6.02146e-06 1 2
14655 1 3.61689 -6.20358 0.02 0 -0.000551826 0.000114242 1 2
14795 1 3.822 -6.38957 0.02 0 -0.00369577 0.000423597 1 2
14797 1 3.8073 -6.19537 0.02 0 -0.00339717 0.000168555 1 2
14796 1 3.99964 -6.37351 0.02 0 -0.00511378 0.00082972 1.02509 2
14798 1 3.99791 -6.17698 0.02 0 -0.00873551 0.000162268 1 2
14800 1 4.10208 -6.15323 0.00978903 0.00131632 -0.000219012 5.7298e-05 1.04076 0
14799 1 3.99983 -6.3409 0.02 0 -0.0051792 0.000795365 1.03058 2
14315 1 4.46085 -6.42921 0.0113114 0.00229616 5.13105e-05 2.07934e-05 1.04309 0
14332 1 4.26228 -6.31177 0.00966007 0.00302912 -0.000187341 -1.27382e-05 1.04893 0
14333 1 4.12365 -6.2145 0.00977858 0.00173796 -0.000283907 -8.40166e-05 1.04324 0
14334 1 3.9997 -6.42128 0.02 0 -0.00504601 0.00087055 1.03071 2
14335 1 4.2989 -6.14987 0.00984071 0.00260647 -2.87128e-05 3.12057e-05 1.04615 0
14336 1 4.55726 -6.22964 0.0123929 0.00272343 5.42645e-05 1.6421e-05 1.04065 0
14338 1 4.46368 -6.08705 0.0126131 0.00285152 4.85875e-05 2.14109e-05 1.04153 0
14337 1 4.41522 -6.2677 0.0118106 0.00295119 3.1713e-05 1.56754e-05 1.04373 0
14318 1 4.59554 -6.39752 0.0112482 0.0021474 5.80535e-05 1.08322e-05 1.04058 0
14323 1 4.71451 -6.2822 0.0114857 0.00231235 4.38322e-05 5.97834e-06 1.04016 0
14340 1 4.79602 -6.15013 0.0118504 0.00251332 3.65734e-05 3.99913e-06 1.04028 0
14344 1 4.64921 -6.10257 0.0126374 0.00282175 4.41953e-05 1.2343e-05 1.04006 0
14327 1 4.8038 -6.40214 0.0098673 0.00171903 4.0219e-05 1.93373e-07 1.04008 0
14326 1 4.933 -6.34675 0.0096568 0.00163297 3.26405e-05 -2.86971e-06 1.04027 0
14341 1 4.93028 -6.17978 0.0110417 0.00215553 3.06418e-05 -9.49981e-07 1.04046 0
14329 1 5.06851 -6.44997 0.00774605 0.00105525 2.63524e-05 -5.42221e-06 1.03993 0
14345 1 5.07013 -6.13097 0.0107863 0.00202068 2.4199e-05 -3.04862e-06 1.04041 0
14331 1 5.08437 -6.29376 0.00941494 0.00150238 2.5423e-05 -4.75573e-06 1.04028 0
14330 1 5.22584 -6.18816 0.00980072 0.00157086 1.85205e-05 -5.14266e-06 1.04013 0
13968 1 5.2461 -6.34404 0.00824887 0.00111281 1.88415e-05 -5.91682e-06 1.03988 0
13989 1 5.32802 -6.06227 0.0104194 0.0017606 1.34486e-05 -5.08392e-06 1.03995 0
13974 1 5.37491 -6.4295 0.00683542 0.000770839 1.40097e-05 -5.77604e-06 1.03944 0
13972 1 5.3889 -6.2382 0.00881007 0.00120307 1.28698e-05 -5.78327e-06 1.0398 0
13973 1 5.5331 -6.17904 0.00889863 0.00118078 8.02915e-06 -5.55866e-06 1.03965 0
13978 1 5.52016 -6.3618 0.00716587 0.000790205 9.19058e-06 -5.40976e-06 1.03942 0
13976 1 5.68848 -6.07417 0.00933954 0.00124984 3.76054e-06 -5.20264e-06 1.03955 0
13977 1 5.66904 -6.25212 0.00786382 0.00088701 4.7924e-06 -4.95477e-06 1.03947 0
13984 1 5.6624 -6.41551 0.00620603 0.000600772 5.50654e-06 -4.48054e-06 1.03919 0
13981 1 5.80979 -6.17951 0.00818165 0.0009084 1.49098e-06 -4.37533e-06 1.03945 0
13986 1 5.79237 -6.43954 0.00565091 0.000503981 2.71741e-06 -3.66583e-06 1.03906 0
13982 1 5.89955 -6.27988 0.00706661 0.0006676 1.30513e-07 -3.57215e-06 1.03931 0
13985 1 6.05015 -6.18253 0.00766419 0.000710341 -2.52717e-06 -2.86849e-06 1.03934 0
13656 1 5.94752 -6.41929 0.00557749 0.000457732 -7.85886e-08 -2.81879e-06 1.03904 0
13646 1 6.10934 -6.30955 0.00640087 0.000504513 -2.9163e-06 -2.16594e-06 1.03918 0
13648 1 6.06992 -6.48222 0.00470954 0.000351256 -1.43225e-06 -1.9273e-06 1.03889 0
13987 1 6.23176 -6.06955 0.00829747 0.000744876 -4.84043e-06 -1.9466e-06 1.03929 0
13645 1 6.27261 -6.20777 0.00708322 0.00053088 -5.17463e-06 -1.36153e-06 1.03924 0
13652 1 6.26362 -6.3557 0.00573325 0.00038844 -4.43461e-06 -1.19321e-06 1.03905 0
13271 1 6.23129 -6.4996 0.00431746 0.000286469 -3.04241e-06 -1.12425e-06 1.03881 0
13647 1 6.44147 -6.18275 0.00707854 0.000464868 -6.79571e-06 -3.01437e-07 1.03921 0
13284 1 6.40055 -6.48814 0.00425754 0.000259238 -4.5525e-06 -4.36803e-07 1.03878 0
13651 1 6.60097 -6.14638 0.00720894 0.000415791 -8.04087e-06 7.71501e-07 1.03919 0
13659 1 6.44262 -6.3328 0.00573495 0.000340994 -6.18186e-06 -2.53151e-07 1.03904 0
13281 1 6.56134 -6.46787 0.00431703 0.000245383 -5.8751e-06 1.77301e-07 1.03878 0
13653 1 6.756 -6.10313 0.00741981 0.000369711 -8.99532e-06 1.9376e-06 1.03918 0
13657 1 6.61594 -6.30231 0.00584307 0.000302708 -7.63474e-06 7.04414e-07 1.03905 0
13270 1 6.78592 -6.25606 0.00611767 0.000268665 -8.93903e-06 1.819e-06 1.03909 0
12940 1 6.73239 -6.42274 0.00463548 0.000235168 -7.41573e-06 9.92249e-07 1.03883 0
13279 1 6.94611 -6.24095 0.0061478 0.000217482 -9.9062e-06 2.92534e-06 1.03909 0
12934 1 6.88672 -6.4129 0.00464215 0.000210694 -8.42693e-06 1.75327e-06 1.03883 0
13277 1 7.1023 -6.2494 0.00600499 0.000160283 -1.07203e-05 3.96788e-06 1.03908 0
12944 1 7.03926 -6.41888 0.00452503 0.000183485 -9.27026e-06 2.51441e-06 1.03882 0
13285 1 7.25437 -6.2005 0.00636801 0.000104578 -1.15803e-05 5.31168e-06 1.03913 0
12609 1 7.19675 -6.3928 0.00472134 0.000145058 -1.04716e-05 3.62727e-06 1.03888 0
14170 1 4.71834 -0.272333 0.0121348 0.000278041 2.17699e-06 -2.49741e-06 1.03738 0
13831 1 5.49636 -0.111955 0.012367 0.000355803 -1.36181e-05 -1.31639e-05 1.03845 0
14165 1 4.52741 -0.00414296 0.0119162 4.62261e-05 3.13059e-05 -4.12458e-06 1.03767 0
15049 1 0.576175 -5.99591 0.02 0 0 0 1 2
15050 1 0.588694 -5.79861 0.02 0 0 0 1 2
15051 1 0.783619 -5.9881 0.02 0 0 0 1 2
15053 1 0.791294 -5.80404 0.02 0 0 0 1 2
15052 1 1.00125 -6.00104 0.02 0 0 0 1 2
15054 1 0.997682 -5.81115 0.02 0 0 0 1 2
15055 1 1.21454 -6.003 0.02 0 0 0 1 2
15057 1 1.20421 -5.81359 0.02 0 0 0 1 2
15056 1 1.42541 -6.0243 0.02 0 0 0 1 2
15058 1 1.41977 -5.84316 0.02 0 0 0 1 2
15059 1 1.44587 -5.66559 0.02 0 0 0 1 2
15060 1 1.62814 -6.00969 0.02 0 -1.06265e-14 3.68871e-12 1 2
15062 1 1.66826 -5.83787 0.02 0 0 0 1 2
15064 1 1.6565 -5.66211 0.02 0 0 0 1 2
15061 1 1.83653 -6.01202 0.02 0 8.98432e-10 8.43852e-09 1 2
15063 1 1.91984 -5.85177 0.02 0 2.17828e-11 1.081e-10 1 2
15065 1 1.87126 -5.68099 0.02 0 3.49412e-20 3.90997e-19 1 2
15066 1 2.05955 -6.0438 0.02 0 7.35779e-08 2.78616e-07 1 2
15068 1 2.12493 -5.8607 0.02 0 7.09311e-10 3.3457e-09 1 2
15070 1 2.10479 -5.67338 0.02 0 0 0 1 2
14656 1 2.48513 -5.99723 0.02 0 3.16639e-08 1.12274e-07 1 2
14658 1 2.5343 -5.80658 0.02 0 3.028e-11 1.50767e-10 1 2
15067 1 2.27711 -6.01904 0.02 0 8.35934e-08 2.39873e-07 1 2
15069 1 2.3297 -5.82953 0.02 0 1.41999e-10 6.93309e-10 1 2
14657 1 2.68698 -5.98398 0.02 0 1.83387e-08 7.69963e-08 1 2
14659 1 2.72809 -5.77274 0.02 0 4.69547e-12 2.8161e-11 1 2
14660 1 2.87938 -5.95423 0.02 0 4.86375e-09 1.97762e-08 1 2
14661 1 2.92 -5.75045 0.02 0 9.8914e-13 7.22949e-12 1 2
14662 1 3.07229 -5.94497 0.02 0 2.33559e-09 1.30018e-08 1 2
14664 1 3.11077 -5.73937 0.02 0 2.99018e-13 2.40039e-12 1 2
14663 1 3.26284 -5.93286 0.02 0 1.16848e-09 6.34932e-09 1 2
14665 1 3.29449 -5.71422 0.02 0 4.30414e-14 3.87749e-13 1 2
14666 1 3.45053 -5.9393 0.02 0 -1.53539e-05 -2.3682e-06 1 2
14667 1 3.63156 -6.00316 0.02 0 -0.000630893 -8.84514e-05 1 2
14668 1 3.47757 -5.73109 0.02 0 -5.49155e-05 1.3338e-06 1 2
14669 1 3.65372 -5.79421 0.02 0 -0.00107297 -5.64642e-05 1 2
14801 1 3.82258 -5.98742 0.02 0 -0.00368631 -0.000150793 1 2
14803 1 3.8447 -5.77786 0.02 0 -0.0039413 -0.000110796 1 2
14802 1 3.99914 -5.97962 0.02 0 -0.00507008 -1.065e-05 1.01543 2
14804 1 4.00039 -5.78726 0.018369 2.21822e-05 -0.00652414 8.87286e-05 1.02769 0
14805 1 4.11745 -6.03158 0.00958765 0.000532785 -0.000427189 0.000125104 1.04166 0
14806 1 3.99991 -5.82065 0.02 0 -0.00666964 0.00010202 1.02937 2
14352 1 4.14521 -5.91516 0.010521 0.000313445 -4.79611e-05 -0.000258355 1.04374 0
14353 1 4.3084 -5.83344 0.0116153 0.00187274 0.000133423 -1.91505e-05 1.04496 0
14354 1 4.29698 -6.00076 0.0103883 0.00201206 -6.91158e-06 6.53591e-06 1.04529 0
14355 1 4.1976 -5.74028 0.0112732 0.00142634 0.000384071 1.78883e-05 1.04584 0
14356 1 4.44445 -5.91966 0.0129956 0.00265876 4.73821e-05 1.89906e-05 1.0415 0
14358 1 4.57308 -5.64738 0.0136362 0.00303341 1.53242e-05 1.8865e-05 1.03953 0
14362 1 4.47095 -5.76352 0.0134703 0.00275796 3.94814e-05 2.33372e-05 1.04068 0
14378 1 4.35806 -5.65277 0.0126347 0.00249445 0.000103603 3.7403e-05 1.04282 0
14339 1 4.74919 -5.9578 0.0128127 0.0029123 3.11403e-05 9.07294e-06 1.04008 0
14343 1 4.58823 -5.95701 0.0131918 0.00292842 3.79021e-05 1.64176e-05 1.03999 0
14342 1 4.88917 -5.99564 0.0121839 0.00269129 2.77295e-05 3.14834e-06 1.04038 0
14357 1 4.64141 -5.80633 0.0134251 0.00303684 2.56316e-05 1.56546e-05 1.03975 0
14359 1 4.73788 -5.65471 0.0134143 0.00314726 1.68545e-05 1.25487e-05 1.03975 0
14360 1 4.80809 -5.79953 0.013039 0.00304942 2.27367e-05 8.95667e-06 1.04009 0
14361 1 4.93319 -5.65876 0.0130183 0.00307761 1.56279e-05 6.18542e-06 1.04018 0
14364 1 4.9568 -5.81959 0.0125927 0.00289279 2.04051e-05 3.73492e-06 1.04032 0
14346 1 5.03434 -5.96905 0.0118129 0.00251253 2.23252e-05 -3.38151e-07 1.04038 0
14348 1 5.18546 -6.00669 0.0111829 0.00215082 1.78075e-05 -3.46266e-06 1.04018 0
13991 1 5.25238 -5.86097 0.0117696 0.00236026 1.32572e-05 -3.19424e-06 1.04 0
14347 1 5.11243 -5.8108 0.0122694 0.00268304 1.62507e-05 -3.04368e-07 1.0402 0
14365 1 5.1036 -5.65674 0.0127576 0.00288794 1.27025e-05 1.25508e-06 1.04012 0
14350 1 5.39059 -5.87895 0.0113591 0.00209865 9.81518e-06 -4.73298e-06 1.0398 0
14369 1 5.27628 -5.69699 0.0123929 0.00258149 1.01031e-05 -2.51335e-06 1.0399 0
14368 1 5.42338 -5.66062 0.0122837 0.0024028 6.8649e-06 -4.11767e-06 1.03972 0
14349 1 5.46834 -6.0348 0.0102096 0.00162507 8.98549e-06 -5.50378e-06 1.03975 0
13990 1 5.60016 -5.96097 0.0103643 0.0016188 5.36488e-06 -5.56313e-06 1.03961 0
14351 1 5.50859 -5.8045 0.01148 0.00205916 6.45722e-06 -5.1723e-06 1.03966 0
14009 1 5.58786 -5.64616 0.0120656 0.00217852 4.15918e-06 -5.23029e-06 1.03959 0
13988 1 5.6591 -5.80874 0.0111435 0.0018323 3.65053e-06 -5.53913e-06 1.03955 0