ITEM: TIMESTEP
0
ITEM: NUMBER OF ATOMS
10000
ITEM: BOX BOUNDS ff ff pp
0.0000000000000000e+00 2.2000000000000000e+01
-1.0000000000000000e+01 1.0000000000000000e+01
-2.0000000000000000e-02 2.0000000000000000e-02
ITEM: ATOMS id type x y vx vy fx fy c_den c_phase
1501 2 2 -10 0 0 0 0 1 5
1535 2 2 -9.8 0 0 0 0 1 5
1569 2 2 -9.6 0 0 0 0 1 5
1502 2 2.2 -10 0 0 0 0 1 5
1503 2 2.4 -10 0 0 0 0 1 5
1536 2 2.2 -9.8 0 0 0 0 1 5
1537 2 2.4 -9.8 0 0 0 0 1 5
1570 2 2.2 -9.6 0 0 0 0 1 5
1571 2 2.4 -9.6 0 0 0 0 1 5
1504 2 2.6 -10 0 0 0 0 1 5
1505 2 2.8 -10 0 0 0 0 1 5
1538 2 2.6 -9.8 0 0 0 0 1 5
1539 2 2.8 -9.8 0 0 0 0 1 5
1572 2 2.6 -9.6 0 0 0 0 1 5
1573 2 2.8 -9.6 0 0 0 0 1 5
1506 2 3 -10 0 0 0 0 1 5
1540 2 3 -9.8 0 0 0 0 1 5
1574 2 3 -9.6 0 0 0 0 1 5
1507 2 3.2 -10 0 0 0 0 1 5
1541 2 3.2 -9.8 0 0 0 0 1 5
1575 2 3.2 -9.6 0 0 0 0 1 5
1508 2 3.4 -10 0 0 0 0 1 5
1542 2 3.4 -9.8 0 0 0 0 1 5
1576 2 3.4 -9.6 0 0 0 0 1 5
1509 2 3.6 -10 0 0 0 0 1 5
1543 2 3.6 -9.8 0 0 0 0 1 5
1577 2 3.6 -9.6 0 0 0 0 1 5
1510 2 3.8 -10 0 0 0 0 1 5
1544 2 3.8 -9.8 0 0 0 0 1 5
1578 2 3.8 -9.6 0 0 0 0 1 5
1511 2 4 -10 0 0 0 0 1 5
1512 2 4.2 -10 0 0 0 0 1 5
1545 2 4 -9.8 0 0 0 0 1 5
1546 2 4.2 -9.8 0 0 0 0 1 5
1579 2 4 -9.6 0 0 0 0 1 5
1580 2 4.2 -9.6 0 0 0 0 1 5
1513 2 4.4 -10 0 0 0 0 1 5
1514 2 4.6 -10 0 0 0 0 1 5
1547 2 4.4 -9.8 0 0 0 0 1 5
1548 2 4.6 -9.8 0 0 0 0 1 5
1581 2 4.4 -9.6 0 0 0 0 1 5
1582 2 4.6 -9.6 0 0 0 0 1 5
1515 2 4.8 -10 0 0 0 0 1 5
1516 2 5 -10 0 0 0 0 1 5
1549 2 4.8 -9.8 0 0 0 0 1 5
1550 2 5 -9.8 0 0 0 0 1 5
1583 2 4.8 -9.6 0 0 0 0 1 5
1584 2 5 -9.6 0 0 0 0 1 5
1517 2 5.2 -10 0 0 0 0 1 5
1518 2 5.4 -10 0 0 0 0 1 5
1551 2 5.2 -9.8 0 0 0 0 1 5
1552 2 5.4 -9.8 0 0 0 0 1 5
1585 2 5.2 -9.6 0 0 0 0 1 5
1586 2 5.4 -9.6 0 0 0 0 1 5
1519 2 5.6 -10 0 0 0 0 1 5
1553 2 5.6 -9.8 0 0 0 0 1 5
1587 2 5.6 -9.6 0 0 0 0 1 5
1520 2 5.8 -10 0 0 0 0 1 5
1554 2 5.8 -9.8 0 0 0 0 1 5
1588 2 5.8 -9.6 0 0 0 0 1 5
1521 2 6 -10 0 0 0 0 1 5
1555 2 6 -9.8 0 0 0 0 1 5
1589 2 6 -9.6 0 0 0 0 1 5
1522 2 6.2 -10 0 0 0 0 1 5
1523 2 6.4 -10 0 0 0 0 1 5
1556 2 6.2 -9.8 0 0 0 0 1 5
1557 2 6.4 -9.8 0 0 0 0 1 5
1590 2 6.2 -9.6 0 0 0 0 1 5
1591 2 6.4 -9.6 0 0 0 0 1 5
1524 2 6.6 -10 0 0 0 0 1 5
1525 2 6.8 -10 0 0 0 0 1 5
1558 2 6.6 -9.8 0 0 0 0 1 5
1559 2 6.8 -9.8 0 0 0 0 1 5
1592 2 6.6 -9.6 0 0 0 0 1 5
1593 2 6.8 -9.6 0 0 0 0 1 5
1526 2 7 -10 0 0 0 0 1 5
1527 2 7.2 -10 0 0 0 0 1 5
1560 2 7 -9.8 0 0 0 0 1 5
1561 2 7.2 -9.8 0 0 0 0 1 5
1594 2 7 -9.6 0 0 0 0 1 5
1595 2 7.2 -9.6 0 0 0 0 1 5
1603 2 2 -9.4 0 0 0 0 1 5
1637 2 2 -9.2 0 0 0 0 1 5
1604 2 2.2 -9.4 0 0 0 0 1 5
1605 2 2.4 -9.4 0 0 0 0 1 5
1638 2 2.2 -9.2 0 0 0 0 1 5
1639 2 2.4 -9.2 0 0 0 0 1 5
1606 2 2.6 -9.4 0 0 0 0 1 5
1607 2 2.8 -9.4 0 0 0 0 1 5
1640 2 2.6 -9.2 0 0 0 0 1 5
1641 2 2.8 -9.2 0 0 0 0 1 5
1608 2 3 -9.4 0 0 0 0 1 5
1642 2 3 -9.2 0 0 0 0 1 5
1609 2 3.2 -9.4 0 0 0 0 1 5
1643 2 3.2 -9.2 0 0 0 0 1 5
1610 2 3.4 -9.4 0 0 0 0 1 5
1644 2 3.4 -9.2 0 0 0 0 1 5
1611 2 3.6 -9.4 0 0 0 0 1 5
1645 2 3.6 -9.2 0 0 0 0 1 5
1612 2 3.8 -9.4 0 0 0 0 1 5
1646 2 3.8 -9.2 0 0 0 0 1 5
1613 2 4 -9.4 0 0 0 0 1 5
1614 2 4.2 -9.4 0 0 0 0 1 5
1647 2 4 -9.2 0 0 0 0 1 5
1648 2 4.2 -9.2 0 0 0 0 1 5
1615 2 4.4 -9.4 0 0 0 0 1 5
1616 2 4.6 -9.4 0 0 0 0 1 5
1649 2 4.4 -9.2 0 0 0 0 1 5
1650 2 4.6 -9.2 0 0 0 0 1 5
1617 2 4.8 -9.4 0 0 0 0 1 5
1618 2 5 -9.4 0 0 0 0 1 5
1651 2 4.8 -9.2 0 0 0 0 1 5
1652 2 5 -9.2 0 0 0 0 1 5
1619 2 5.2 -9.4 0 0 0 0 1 5
1620 2 5.4 -9.4 0 0 0 0 1 5
1653 2 5.2 -9.2 0 0 0 0 1 5
1654 2 5.4 -9.2 0 0 0 0 1 5
1621 2 5.6 -9.4 0 0 0 0 1 5
1655 2 5.6 -9.2 0 0 0 0 1 5
1622 2 5.8 -9.4 0 0 0 0 1 5
1656 2 5.8 -9.2 0 0 0 0 1 5
1623 2 6 -9.4 0 0 0 0 1 5
1657 2 6 -9.2 0 0 0 0 1 5
1624 2 6.2 -9.4 0 0 0 0 1 5
1625 2 6.4 -9.4 0 0 0 0 1 5
1658 2 6.2 -9.2 0 0 0 0 1 5
1659 2 6.4 -9.2 0 0 0 0 1 5
1626 2 6.6 -9.4 0 0 0 0 1 5
1627 2 6.8 -9.4 0 0 0 0 1 5
1660 2 6.6 -9.2 0 0 0 0 1 5
1661 2 6.8 -9.2 0 0 0 0 1 5
1628 2 7 -9.4 0 0 0 0 1 5
1629 2 7.2 -9.4 0 0 0 0 1 5
1662 2 7 -9.2 0 0 0 0 1 5
1663 2 7.2 -9.2 0 0 0 0 1 5
1671 2 2 -9 0 0 0 0 1 5
1705 2 2 -8.8 0 0 0 0 1 5
1672 2 2.2 -9 0 0 0 0 1 5
1673 2 2.4 -9 0 0 0 0 1 5
1706 2 2.2 -8.8 0 0 0 0 1 5
1707 2 2.4 -8.8 0 0 0 0 1 5
1674 2 2.6 -9 0 0 0 0 1 5
1675 2 2.8 -9 0 0 0 0 1 5
1708 2 2.6 -8.8 0 0 0 0 1 5
1709 2 2.8 -8.8 0 0 0 0 1 5
1676 2 3 -9 0 0 0 0 1 5
1710 2 3 -8.8 0 0 0 0 1 5
1677 2 3.2 -9 0 0 0 0 1 5
1711 2 3.2 -8.8 0 0 0 0 1 5
1678 2 3.4 -9 0 0 0 0 1 5
1712 2 3.4 -8.8 0 0 0 0 1 5
1679 2 3.6 -9 0 0 0 0 1 5
1713 2 3.6 -8.8 0 0 0 0 1 5
1680 2 3.8 -9 0 0 0 0 1 5
1714 2 3.8 -8.8 0 0 0 0 1 5
1681 2 4 -9 0 0 0 0 1 5
1682 2 4.2 -9 0 0 0 0 1 5
1715 2 4 -8.8 0 0 0 0 1 5
1716 2 4.2 -8.8 0 0 0 0 1 5
1683 2 4.4 -9 0 0 0 0 1 5
1684 2 4.6 -9 0 0 0 0 1 5
1717 2 4.4 -8.8 0 0 0 0 1 5
1718 2 4.6 -8.8 0 0 0 0 1 5
1685 2 4.8 -9 0 0 0 0 1 5
1686 2 5 -9 0 0 0 0 1 5
1719 2 4.8 -8.8 0 0 0 0 1 5
1720 2 5 -8.8 0 0 0 0 1 5
1687 2 5.2 -9 0 0 0 0 1 5
1688 2 5.4 -9 0 0 0 0 1 5
1721 2 5.2 -8.8 0 0 0 0 1 5
1722 2 5.4 -8.8 0 0 0 0 1 5
1689 2 5.6 -9 0 0 0 0 1 5
1723 2 5.6 -8.8 0 0 0 0 1 5
1690 2 5.8 -9 0 0 0 0 1 5
1724 2 5.8 -8.8 0 0 0 0 1 5
1691 2 6 -9 0 0 0 0 1 5
1725 2 6 -8.8 0 0 0 0 1 5
1692 2 6.2 -9 0 0 0 0 1 5
1693 2 6.4 -9 0 0 0 0 1 5
1726 2 6.2 -8.8 0 0 0 0 1 5
1727 2 6.4 -8.8 0 0 0 0 1 5
1694 2 6.6 -9 0 0 0 0 1 5
1695 2 6.8 -9 0 0 0 0 1 5
1728 2 6.6 -8.8 0 0 0 0 1 5
1729 2 6.8 -8.8 0 0 0 0 1 5
1696 2 7 -9 0 0 0 0 1 5
1697 2 7.2 -9 0 0 0 0 1 5
1730 2 7 -8.8 0 0 0 0 1 5
1731 2 7.2 -8.8 0 0 0 0 1 5
1739 2 2 -8.6 0 0 0 0 1 5
1773 2 2 -8.4 0 0 0 0 1 5
1740 2 2.2 -8.6 0 0 0 0 1 5
1741 2 2.4 -8.6 0 0 0 0 1 5
1774 2 2.2 -8.4 0 0 0 0 1 5
1775 2 2.4 -8.4 0 0 0 0 1 5
1742 2 2.6 -8.6 0 0 0 0 1 5
1743 2 2.8 -8.6 0 0 0 0 1 5
1776 2 2.6 -8.4 0 0 0 0 1 5
1777 2 2.8 -8.4 0 0 0 0 1 5
1744 2 3 -8.6 0 0 0 0 1 5
1778 2 3 -8.4 0 0 0 0 1 5
1745 2 3.2 -8.6 0 0 0 0 1 5
1779 2 3.2 -8.4 0 0 0 0 1 5
1746 2 3.4 -8.6 0 0 0 0 1 5
1780 2 3.4 -8.4 0 0 0 0 1 5
1747 2 3.6 -8.6 0 0 0 0 1 5
1781 2 3.6 -8.4 0 0 0 0 1 5
1748 2 3.8 -8.6 0 0 0 0 1 5
1782 2 3.8 -8.4 0 0 0 0 1 5
1749 2 4 -8.6 0 0 0 0 1 5
1750 2 4.2 -8.6 0 0 0 0 1 5
1783 2 4 -8.4 0 0 0 0 1 5
1784 2 4.2 -8.4 0 0 0 0 1 5
1751 2 4.4 -8.6 0 0 0 0 1 5
1752 2 4.6 -8.6 0 0 0 0 1 5
1785 2 4.4 -8.4 0 0 0 0 1 5
1786 2 4.6 -8.4 0 0 0 0 1 5
1753 2 4.8 -8.6 0 0 0 0 1 5
1754 2 5 -8.6 0 0 0 0 1 5
1787 2 4.8 -8.4 0 0 0 0 1 5
1788 2 5 -8.4 0 0 0 0 1 5
1755 2 5.2 -8.6 0 0 0 0 1 5
1756 2 5.4 -8.6 0 0 0 0 1 5
1789 2 5.2 -8.4 0 0 0 0 1 5
1790 2 5.4 -8.4 0 0 0 0 1 5
1757 2 5.6 -8.6 0 0 0 0 1 5
1791 2 5.6 -8.4 0 0 0 0 1 5
1758 2 5.8 -8.6 0 0 0 0 1 5
1792 2 5.8 -8.4 0 0 0 0 1 5
1759 2 6 -8.6 0 0 0 0 1 5
1793 2 6 -8.4 0 0 0 0 1 5
1760 2 6.2 -8.6 0 0 0 0 1 5
1761 2 6.4 -8.6 0 0 0 0 1 5
1794 2 6.2 -8.4 0 0 0 0 1 5
1795 2 6.4 -8.4 0 0 0 0 1 5
1762 2 6.6 -8.6 0 0 0 0 1 5
1763 2 6.8 -8.6 0 0 0 0 1 5
1796 2 6.6 -8.4 0 0 0 0 1 5
1797 2 6.8 -8.4 0 0 0 0 1 5
1764 2 7 -8.6 0 0 0 0 1 5
1765 2 7.2 -8.6 0 0 0 0 1 5
1798 2 7 -8.4 0 0 0 0 1 5
1799 2 7.2 -8.4 0 0 0 0 1 5
1807 2 2 -8.2 0 0 0 0 1 5
1841 2 2 -8 0 0 0 0 1 5
1808 2 2.2 -8.2 0 0 0 0 1 5
1809 2 2.4 -8.2 0 0 0 0 1 5
1842 2 2.2 -8 0 0 0 0 1 5
1843 2 2.4 -8 0 0 0 0 1 5
1810 2 2.6 -8.2 0 0 0 0 1 5
1811 2 2.8 -8.2 0 0 0 0 1 5
1844 2 2.6 -8 0 0 0 0 1 5
1845 2 2.8 -8 0 0 0 0 1 5
1812 2 3 -8.2 0 0 0 0 1 5
1846 2 3 -8 0 0 0 0 1 5
1813 2 3.2 -8.2 0 0 0 0 1 5
1847 2 3.2 -8 0 0 0 0 1 5
1814 2 3.4 -8.2 0 0 0 0 1 5
1848 2 3.4 -8 0 0 0 0 1 5
1815 2 3.6 -8.2 0 0 0 0 1 5
1849 2 3.6 -8 0 0 0 0 1 5
1816 2 3.8 -8.2 0 0 0 0 1 5
1850 2 3.8 -8 0 0 0 0 1 5
1817 2 4 -8.2 0 0 0 0 1 5
1818 2 4.2 -8.2 0 0 0 0 1 5
1851 2 4 -8 0 0 0 0 1 5
1852 2 4.2 -8 0 0 0 0 1 5
1819 2 4.4 -8.2 0 0 0 0 1 5
1820 2 4.6 -8.2 0 0 0 0 1 5
1853 2 4.4 -8 0 0 0 0 1 5
1854 2 4.6 -8 0 0 0 0 1 5
1821 2 4.8 -8.2 0 0 0 0 1 5
1822 2 5 -8.2 0 0 0 0 1 5
1855 2 4.8 -8 0 0 0 0 1 5
1856 2 5 -8 0 0 0 0 1 5
1823 2 5.2 -8.2 0 0 0 0 1 5
1824 2 5.4 -8.2 0 0 0 0 1 5
1857 2 5.2 -8 0 0 0 0 1 5
1858 2 5.4 -8 0 0 0 0 1 5
1825 2 5.6 -8.2 0 0 0 0 1 5
1859 2 5.6 -8 0 0 0 0 1 5
1826 2 5.8 -8.2 0 0 0 0 1 5
1860 2 5.8 -8 0 0 0 0 1 5
1827 2 6 -8.2 0 0 0 0 1 5
1861 2 6 -8 0 0 0 0 1 5
1828 2 6.2 -8.2 0 0 0 0 1 5
1829 2 6.4 -8.2 0 0 0 0 1 5
1862 2 6.2 -8 0 0 0 0 1 5
1863 2 6.4 -8 0 0 0 0 1 5
1830 2 6.6 -8.2 0 0 0 0 1 5
1831 2 6.8 -8.2 0 0 0 0 1 5
1864 2 6.6 -8 0 0 0 0 1 5
1865 2 6.8 -8 0 0 0 0 1 5
1832 2 7 -8.2 0 0 0 0 1 5
1833 2 7.2 -8.2 0 0 0 0 1 5
1866 2 7 -8 0 0 0 0 1 5
1867 2 7.2 -8 0 0 0 0 1 5
1875 2 2 -7.8 0 0 0 0 1 5
1909 2 2 -7.6 0 0 0 0 1 5
1943 2 2 -7.4 0 0 0 0 1 5
1876 2 2.2 -7.8 0 0 0 0 1 5
1877 2 2.4 -7.8 0 0 0 0 1 5
1910 2 2.2 -7.6 0 0 0 0 1 5
1911 2 2.4 -7.6 0 0 0 0 1 5
1944 2 2.2 -7.4 0 0 0 0 1 5
1945 2 2.4 -7.4 0 0 0 0 1 5
1878 2 2.6 -7.8 0 0 0 0 1 5
1879 2 2.8 -7.8 0 0 0 0 1 5
1912 2 2.6 -7.6 0 0 0 0 1 5
1913 2 2.8 -7.6 0 0 0 0 1 5
1946 2 2.6 -7.4 0 0 0 0 1 5
1947 2 2.8 -7.4 0 0 0 0 1 5
1880 2 3 -7.8 0 0 0 0 1 5
1914 2 3 -7.6 0 0 0 0 1 5
1948 2 3 -7.4 0 0 0 0 1 5
1881 2 3.2 -7.8 0 0 0 0 1 5
1915 2 3.2 -7.6 0 0 0 0 1 5
1949 2 3.2 -7.4 0 0 0 0 1 5
1882 2 3.4 -7.8 0 0 0 0 1 5
1916 2 3.4 -7.6 0 0 0 0 1 5
1950 2 3.4 -7.4 0 0 0 0 1 5
1883 2 3.6 -7.8 0 0 0 0 1 5
1917 2 3.6 -7.6 0 0 0 0 1 5
1951 2 3.6 -7.4 0 0 0 0 1 5
1884 2 3.8 -7.8 0 0 0 0 1 5
1918 2 3.8 -7.6 0 0 0 0 1 5
1952 2 3.8 -7.4 0 0 0 0 1 5
1885 2 4 -7.8 0 0 0 0 1 5
1886 2 4.2 -7.8 0 0 0 0 1 5
1919 2 4 -7.6 0 0 0 0 1 5
1920 2 4.2 -7.6 0 0 0 0 1 5
1953 2 4 -7.4 0 0 0 0 1 5
1954 2 4.2 -7.4 0 0 0 0 1 5
1887 2 4.4 -7.8 0 0 0 0 1 5
1888 2 4.6 -7.8 0 0 0 0 1 5
1921 2 4.4 -7.6 0 0 0 0 1 5
1922 2 4.6 -7.6 0 0 0 0 1 5
1955 2 4.4 -7.4 0 0 0 0 1 5
1956 2 4.6 -7.4 0 0 0 0 1 5
1889 2 4.8 -7.8 0 0 0 0 1 5
1890 2 5 -7.8 0 0 0 0 1 5
1923 2 4.8 -7.6 0 0 0 0 1 5
1924 2 5 -7.6 0 0 0 0 1 5
1957 2 4.8 -7.4 0 0 0 0 1 5
1958 2 5 -7.4 0 0 0 0 1 5
1891 2 5.2 -7.8 0 0 0 0 1 5
1892 2 5.4 -7.8 0 0 0 0 1 5
1925 2 5.2 -7.6 0 0 0 0 1 5
1926 2 5.4 -7.6 0 0 0 0 1 5
1959 2 5.2 -7.4 0 0 0 0 1 5
1960 2 5.4 -7.4 0 0 0 0 1 5
1893 2 5.6 -7.8 0 0 0 0 1 5
1927 2 5.6 -7.6 0 0 0 0 1 5
1961 2 5.6 -7.4 0 0 0 0 1 5
1894 2 5.8 -7.8 0 0 0 0 1 5
1928 2 5.8 -7.6 0 0 0 0 1 5
1962 2 5.8 -7.4 0 0 0 0 1 5
1895 2 6 -7.8 0 0 0 0 1 5
1929 2 6 -7.6 0 0 0 0 1 5
1963 2 6 -7.4 0 0 0 0 1 5
1896 2 6.2 -7.8 0 0 0 0 1 5
1897 2 6.4 -7.8 0 0 0 0 1 5
1930 2 6.2 -7.6 0 0 0 0 1 5
1931 2 6.4 -7.6 0 0 0 0 1 5
1964 2 6.2 -7.4 0 0 0 0 1 5
1965 2 6.4 -7.4 0 0 0 0 1 5
1898 2 6.6 -7.8 0 0 0 0 1 5
1899 2 6.8 -7.8 0 0 0 0 1 5
1932 2 6.6 -7.6 0 0 0 0 1 5
1933 2 6.8 -7.6 0 0 0 0 1 5
1966 2 6.6 -7.4 0 0 0 0 1 5
1967 2 6.8 -7.4 0 0 0 0 1 5
1900 2 7 -7.8 0 0 0 0 1 5
1901 2 7.2 -7.8 0 0 0 0 1 5
1934 2 7 -7.6 0 0 0 0 1 5
1935 2 7.2 -7.6 0 0 0 0 1 5
1968 2 7 -7.4 0 0 0 0 1 5
1969 2 7.2 -7.4 0 0 0 0 1 5
1977 2 2 -7.2 0 0 0 0 1 5
2011 2 2 -7 0 0 0 0 1 5
1978 2 2.2 -7.2 0 0 0 0 1 5
1979 2 2.4 -7.2 0 0 0 0 1 5
2012 2 2.2 -7 0 0 0 0 1 5
2013 2 2.4 -7 0 0 0 0 1 5
1980 2 2.6 -7.2 0 0 0 0 1 5
1981 2 2.8 -7.2 0 0 0 0 1 5
2014 2 2.6 -7 0 0 0 0 1 5
2015 2 2.8 -7 0 0 0 0 1 5
1982 2 3 -7.2 0 0 0 0 1 5
2016 2 3 -7 0 0 0 0 1 5
1983 2 3.2 -7.2 0 0 0 0 1 5
2017 2 3.2 -7 0 0 0 0 1 5
1984 2 3.4 -7.2 0 0 0 0 1 5
2018 2 3.4 -7 0 0 0 0 1 5
1985 2 3.6 -7.2 0 0 0 0 1 5
2019 2 3.6 -7 0 0 0 0 1 5
1986 2 3.8 -7.2 0 0 0 0 1 5
2020 2 3.8 -7 0 0 0 0 1 5
1987 2 4 -7.2 0 0 0 0 1 5
1988 2 4.2 -7.2 0 0 0 0 1 5
2021 2 4 -7 0 0 0 0 1 5
2022 2 4.2 -7 0 0 0 0 1 5
1989 2 4.4 -7.2 0 0 0 0 1 5
1990 2 4.6 -7.2 0 0 0 0 1 5
2023 2 4.4 -7 0 0 0 0 1 5
2024 2 4.6 -7 0 0 0 0 1 5
1991 2 4.8 -7.2 0 0 0 0 1 5
1992 2 5 -7.2 0 0 0 0 1 5
2025 2 4.8 -7 0 0 0 0 1 5
2026 2 5 -7 0 0 0 0 1 5
1993 2 5.2 -7.2 0 0 0 0 1 5
1994 2 5.4 -7.2 0 0 0 0 1 5
2027 2 5.2 -7 0 0 0 0 1 5
2028 2 5.4 -7 0 0 0 0 1 5
1995 2 5.6 -7.2 0 0 0 0 1 5
2029 2 5.6 -7 0 0 0 0 1 5
1996 2 5.8 -7.2 0 0 0 0 1 5
2030 2 5.8 -7 0 0 0 0 1 5
1997 2 6 -7.2 0 0 0 0 1 5
2031 2 6 -7 0 0 0 0 1 5
1998 2 6.2 -7.2 0 0 0 0 1 5
1999 2 6.4 -7.2 0 0 0 0 1 5
2032 2 6.2 -7 0 0 0 0 1 5
2033 2 6.4 -7 0 0 0 0 1 5
2000 2 6.6 -7.2 0 0 0 0 1 5
2001 2 6.8 -7.2 0 0 0 0 1 5
2034 2 6.6 -7 0 0 0 0 1 5
2035 2 6.8 -7 0 0 0 0 1 5
2002 2 7 -7.2 0 0 0 0 1 5
2003 2 7.2 -7.2 0 0 0 0 1 5
2036 2 7 -7 0 0 0 0 1 5
2037 2 7.2 -7 0 0 0 0 1 5
3101 1 2.01184 -6.75162 0 0 0 0 1 0
3135 1 2.02473 -6.54926 0 0 0 0 1 0
3102 1 2.20261 -6.72835 0 0 0 0 1 0
3103 1 2.39152 -6.74203 0 0 0 0 1 0
3136 1 2.21722 -6.54477 0 0 0 0 1 0
3137 1 2.41729 -6.5542 0 0 0 0 1 0
3104 1 2.58681 -6.74133 0 0 0 0 1 0
3105 1 2.7935 -6.75491 0 0 0 0 1 0
3138 1 2.62461 -6.56709 0 0 0 0 1 0
3139 1 2.82853 -6.5739 0 0 0 0 1 0
3106 1 3.00771 -6.74948 0 0 0 0 1 0
3107 1 3.21394 -6.75696 0 0 0 0 1 0
3140 1 3.02328 -6.56093 0 0 0 0 1 0
3141 1 3.21701 -6.56947 0 0 0 0 1 0
3108 1 3.41274 -6.72978 0 0 0 0 1 0
3142 1 3.41216 -6.54093 0 0 0 0 1 0
3109 1 3.60222 -6.73461 0 0 0 0 1 0
3143 1 3.60214 -6.53743 0 0 0 0 1 0
3110 1 3.78955 -6.72688 0 0 0 0 1 0
3111 1 3.98402 -6.75334 0 0 0 0 1 0
3112 1 4.19142 -6.74338 0 0 0 0 1 0
3145 1 3.96376 -6.55746 0 0 0 0 1 0
3146 1 4.14889 -6.5613 0 0 0 0 1 0
3113 1 4.39276 -6.74376 0 0 0 0 1 0
3114 1 4.58817 -6.73868 0 0 0 0 1 0
3147 1 4.34534 -6.55905 0 0 0 0 1 0
3148 1 4.54984 -6.55789 0 0 0 0 1 0
3115 1 4.78381 -6.73962 0 0 0 0 1 0
3116 1 4.99353 -6.76082 0 0 0 0 1 0
3149 1 4.75418 -6.54776 0 0 0 0 1 0
3150 1 4.94951 -6.57768 0 0 0 0 1 0
3151 1 5.14592 -6.55109 0 0 0 0 1 0
3117 1 5.19428 -6.73736 0 0 0 0 1 0
3118 1 5.39367 -6.74024 0 0 0 0 1 0
3152 1 5.34655 -6.56038 0 0 0 0 1 0
3153 1 5.55367 -6.57021 0 0 0 0 1 0
3119 1 5.59757 -6.75869 0 0 0 0 1 0
3120 1 5.79773 -6.7389 0 0 0 0 1 0
3154 1 5.76161 -6.56389 0 0 0 0 1 0
3155 1 5.98185 -6.57614 0 0 0 0 1 0
3121 1 5.99445 -6.75753 0 0 0 0 1 0
3122 1 6.18613 -6.74459 0 0 0 0 1 0
3123 1 6.38796 -6.76349 0 0 0 0 1 0
3156 1 6.21987 -6.57221 0 0 0 0 1 0
3157 1 6.42466 -6.57855 0 0 0 0 1 0
3124 1 6.60111 -6.76677 0 0 0 0 1 0
3125 1 6.80539 -6.74921 0 0 0 0 1 0
3158 1 6.62308 -6.57855 0 0 0 0 1 0
3159 1 6.81826 -6.55859 0 0 0 0 1 0
3126 1 6.9953 -6.7407 0 0 0 0 1 0
3127 1 7.19026 -6.76847 0 0 0 0 1 0
3160 1 7.02015 -6.56058 0 0 0 0 1 0
3161 1 7.21308 -6.576 0 0 0 0 1 0
3203 1 2.02838 -6.16727 0 0 0 0 1 0
3169 1 2.02619 -6.35803 0 0 0 0 1 0
3170 1 2.23508 -6.35816 0 0 0 0 1 0
3171 1 2.43816 -6.36705 0 0 0 0 1 0
3204 1 2.22708 -6.16827 0 0 0 0 1 0
3205 1 2.43132 -6.1805 0 0 0 0 1 0
3172 1 2.63684 -6.38798 0 0 0 0 1 0
3173 1 2.83921 -6.38895 0 0 0 0 1 0
3206 1 2.64761 -6.20569 0 0 0 0 1 0
3207 1 2.86199 -6.20353 0 0 0 0 1 0
3174 1 3.04206 -6.36843 0 0 0 0 1 0
3175 1 3.23821 -6.37843 0 0 0 0 1 0
3208 1 3.06321 -6.17307 0 0 0 0 1 0
3209 1 3.25734 -6.18053 0 0 0 0 1 0
3176 1 3.43082 -6.34191 0 0 0 0 1 0
3210 1 3.44582 -6.1381 0 0 0 0 1 0
3177 1 3.61798 -6.33104 0 0 0 0 1 0
3211 1 3.63553 -6.12121 0 0 0 0 1 0
3144 1 3.78558 -6.52057 0 0 0 0 1 0
3178 1 3.8029 -6.30892 0 0 0 0 1 0
3212 1 3.824 -6.10264 0 0 0 0 1 0
3179 1 3.98559 -6.35291 0 0 0 0 1 0
3180 1 4.18139 -6.37302 0 0 0 0 1 0
3213 1 4.00467 -6.14001 0 0 0 0 1 0
3214 1 4.18368 -6.17699 0 0 0 0 1 0
3181 1 4.38654 -6.37279 0 0 0 0 1 0
3182 1 4.58751 -6.37301 0 0 0 0 1 0
3215 1 4.37148 -6.17854 0 0 0 0 1 0
3216 1 4.56529 -6.17868 0 0 0 0 1 0
3183 1 4.77995 -6.34968 0 0 0 0 1 0
3184 1 4.96683 -6.38741 0 0 0 0 1 0
3217 1 4.76298 -6.15582 0 0 0 0 1 0
3218 1 4.96336 -6.18703 0 0 0 0 1 0
3185 1 5.15809 -6.35636 0 0 0 0 1 0
3219 1 5.16395 -6.16656 0 0 0 0 1 0
3186 1 5.35462 -6.37526 0 0 0 0 1 0
3220 1 5.36567 -6.18666 0 0 0 0 1 0
3187 1 5.55361 -6.38288 0 0 0 0 1 0
3221 1 5.57497 -6.19235 0 0 0 0 1 0
3188 1 5.75884 -6.38424 0 0 0 0 1 0
3222 1 5.77818 -6.19559 0 0 0 0 1 0
3223 1 5.98078 -6.21836 0 0 0 0 1 0
3189 1 5.97039 -6.40087 0 0 0 0 1 0
3190 1 6.17786 -6.40575 0 0 0 0 1 0
3191 1 6.40188 -6.39862 0 0 0 0 1 0
3224 1 6.19925 -6.22649 0 0 0 0 1 0
3225 1 6.41736 -6.21801 0 0 0 0 1 0
3192 1 6.60789 -6.38915 0 0 0 0 1 0
3193 1 6.80591 -6.36834 0 0 0 0 1 0
3226 1 6.62306 -6.18855 0 0 0 0 1 0
3227 1 6.82667 -6.18143 0 0 0 0 1 0
3194 1 7.01101 -6.38259 0 0 0 0 1 0
3195 1 7.22468 -6.38716 0 0 0 0 1 0
3228 1 7.03387 -6.20222 0 0 0 0 1 0
3229 1 7.2426 -6.20607 0 0 0 0 1 0
3271 1 2.06888 -5.78448 0 0 0 0 1 0
3237 1 2.02755 -5.9733 0 0 0 0 1 0
3238 1 2.22906 -5.97613 0 0 0 0 1 0
3239 1 2.43308 -5.99115 0 0 0 0 1 0
3272 1 2.28129 -5.79188 0 0 0 0 1 0
3273 1 2.48888 -5.80453 0 0 0 0 1 0
3240 1 2.6346 -6.02123 0 0 0 0 1 0
3241 1 2.84121 -6.01537 0 0 0 0 1 0
3274 1 2.68933 -5.83465 0 0 0 0 1 0
3275 1 2.89062 -5.817 0 0 0 0 1 0
3242 1 3.04444 -5.97957 0 0 0 0 1 0
3243 1 3.24847 -5.98166 0 0 0 0 1 0
3276 1 3.09169 -5.78216 0 0 0 0 1 0
3277 1 3.28764 -5.78539 0 0 0 0 1 0
3244 1 3.45632 -5.94042 0 0 0 0 1 0
3245 1 3.65604 -5.91506 0 0 0 0 1 0
3278 1 3.47902 -5.73581 0 0 0 0 1 0
3279 1 3.66775 -5.70885 0 0 0 0 1 0
3246 1 3.85183 -5.90074 0 0 0 0 1 0
3280 1 3.85696 -5.69517 0 0 0 0 1 0
3247 1 4.0397 -5.9255 0 0 0 0 1 0
3281 1 4.04558 -5.71264 0 0 0 0 1 0
3248 1 4.22045 -5.97061 0 0 0 0 1 0
3282 1 4.2301 -5.7563 0 0 0 0 1 0
3249 1 4.40883 -5.98028 0 0 0 0 1 0
3250 1 4.59802 -5.97288 0 0 0 0 1 0
3283 1 4.4216 -5.77886 0 0 0 0 1 0
3284 1 4.61955 -5.76461 0 0 0 0 1 0
3251 1 4.79215 -5.96398 0 0 0 0 1 0
3252 1 4.99257 -5.99492 0 0 0 0 1 0
3285 1 4.81995 -5.77335 0 0 0 0 1 0
3286 1 5.02221 -5.80768 0 0 0 0 1 0
3253 1 5.21259 -5.98893 0 0 0 0 1 0
3254 1 5.43543 -6.01275 0 0 0 0 1 0
3287 1 5.23648 -5.81042 0 0 0 0 1 0
3288 1 5.45262 -5.82998 0 0 0 0 1 0
3255 1 5.64511 -6.00474 0 0 0 0 1 0
3256 1 5.84486 -6.00243 0 0 0 0 1 0
3289 1 5.67155 -5.81574 0 0 0 0 1 0
3290 1 5.88046 -5.80261 0 0 0 0 1 0
3257 1 6.03546 -6.03328 0 0 0 0 1 0
3258 1 6.22713 -6.03474 0 0 0 0 1 0
3259 1 6.41944 -6.02704 0 0 0 0 1 0
3291 1 6.07469 -5.83368 0 0 0 0 1 0
3292 1 6.26883 -5.82876 0 0 0 0 1 0
3293 1 6.46399 -5.82346 0 0 0 0 1 0
3260 1 6.61736 -5.99289 0 0 0 0 1 0
3261 1 6.82578 -5.99456 0 0 0 0 1 0
3294 1 6.67047 -5.803 0 0 0 0 1 0
3295 1 6.88044 -5.8133 0 0 0 0 1 0
3262 1 7.03864 -6.01828 0 0 0 0 1 0
3263 1 7.26112 -6.02829 0 0 0 0 1 0
3296 1 7.08999 -5.8406 0 0 0 0 1 0
3297 1 7.30777 -5.85757 0 0 0 0 1 0
3330 1 7.10418 -5.65807 0 0 0 0 1 0
3331 1 7.32574 -5.67806 0 0 0 0 1 0
3339 1 2.128 -5.4058 0 0 0 0 1 0
3305 1 2.09566 -5.5962 0 0 0 0 1 0
3306 1 2.30474 -5.6044 0 0 0 0 1 0
3340 1 2.33327 -5.41529 0 0 0 0 1 0
3374 1 2.34247 -5.22133 0 0 0 0 1 0
3307 1 2.50966 -5.60748 0 0 0 0 1 0
3341 1 2.53362 -5.40396 0 0 0 0 1 0
3308 1 2.70701 -5.63729 0 0 0 0 1 0
3342 1 2.72538 -5.43333 0 0 0 0 1 0
3376 1 2.72959 -5.22014 0 0 0 0 1 0
3309 1 2.90732 -5.61718 0 0 0 0 1 0
3343 1 2.91958 -5.4152 0 0 0 0 1 0
3310 1 3.1077 -5.58229 0 0 0 0 1 0
3311 1 3.30801 -5.58288 0 0 0 0 1 0
3344 1 3.1156 -5.38278 0 0 0 0 1 0
3345 1 3.31369 -5.38236 0 0 0 0 1 0
3312 1 3.50625 -5.52808 0 0 0 0 1 0
3313 1 3.70553 -5.50402 0 0 0 0 1 0
3346 1 3.51235 -5.32894 0 0 0 0 1 0
3347 1 3.71682 -5.30535 0 0 0 0 1 0
3314 1 3.90392 -5.49441 0 0 0 0 1 0
3315 1 4.09691 -5.50855 0 0 0 0 1 0
3348 1 3.92092 -5.29653 0 0 0 0 1 0
3349 1 4.12062 -5.3037 0 0 0 0 1 0
3316 1 4.28088 -5.54901 0 0 0 0 1 0
3350 1 4.31036 -5.33819 0 0 0 0 1 0
3317 1 4.4668 -5.57536 0 0 0 0 1 0
3318 1 4.66043 -5.56123 0 0 0 0 1 0
3351 1 4.49818 -5.36188 0 0 0 0 1 0
3352 1 4.69197 -5.36116 0 0 0 0 1 0
3319 1 4.86169 -5.58549 0 0 0 0 1 0
3320 1 5.07141 -5.6254 0 0 0 0 1 0
3353 1 4.88792 -5.39151 0 0 0 0 1 0
3354 1 5.085 -5.43659 0 0 0 0 1 0
3388 1 5.11084 -5.24105 0 0 0 0 1 0
3322 1 5.49673 -5.64558 0 0 0 0 1 0
3321 1 5.28823 -5.63311 0 0 0 0 1 0
3355 1 5.29158 -5.44493 0 0 0 0 1 0
3356 1 5.49821 -5.45168 0 0 0 0 1 0
3389 1 5.31073 -5.25341 0 0 0 0 1 0
3390 1 5.51677 -5.25565 0 0 0 0 1 0
3323 1 5.7034 -5.62773 0 0 0 0 1 0
3324 1 5.90446 -5.60333 0 0 0 0 1 0
3357 1 5.70653 -5.43848 0 0 0 0 1 0
3358 1 5.9198 -5.40936 0 0 0 0 1 0
3391 1 5.72913 -5.25291 0 0 0 0 1 0
3392 1 5.9495 -5.21954 0 0 0 0 1 0
3325 1 6.0978 -5.62887 0 0 0 0 1 0
3326 1 6.28878 -5.61698 0 0 0 0 1 0
3359 1 6.12266 -5.42296 0 0 0 0 1 0
3360 1 6.31947 -5.40365 0 0 0 0 1 0
3393 1 6.15593 -5.22229 0 0 0 0 1 0
3327 1 6.47964 -5.62036 0 0 0 0 1 0
3361 1 6.51447 -5.41859 0 0 0 0 1 0
3328 1 6.67826 -5.61019 0 0 0 0 1 0
3362 1 6.72082 -5.42183 0 0 0 0 1 0
3395 1 6.54977 -5.22191 0 0 0 0 1 0
3396 1 6.75129 -5.23061 0 0 0 0 1 0
3329 1 6.88629 -5.62586 0 0 0 0 1 0
3363 1 6.92875 -5.44246 0 0 0 0 1 0
3364 1 7.13262 -5.47541 0 0 0 0 1 0
3397 1 6.95788 -5.25608 0 0 0 0 1 0
3398 1 7.16828 -5.28876 0 0 0 0 1 0
3373 1 2.13969 -5.2108 0 0 0 0 1 0
8086 1 2.01088 -4.80548 0 0 0 0 1 0
3407 1 2.18224 -5.01593 0 0 0 0 1 0
3408 1 2.37903 -5.02224 0 0 0 0 1 0
3441 1 2.2072 -4.81527 0 0 0 0 1 0
3442 1 2.40063 -4.81151 0 0 0 0 1 0
3375 1 2.54125 -5.19341 0 0 0 0 1 0
3409 1 2.56785 -4.97468 0 0 0 0 1 0
3410 1 2.75222 -5.00283 0 0 0 0 1 0
3377 1 2.92332 -5.21254 0 0 0 0 1 0
3411 1 2.94372 -5.012 0 0 0 0 1 0
3445 1 2.95719 -4.80991 0 0 0 0 1 0
3378 1 3.12621 -5.18545 0 0 0 0 1 0
3412 1 3.14305 -4.98686 0 0 0 0 1 0
3446 1 3.15214 -4.78311 0 0 0 0 1 0
3379 1 3.3317 -5.18123 0 0 0 0 1 0
3413 1 3.34179 -4.98294 0 0 0 0 1 0
3380 1 3.54179 -5.13451 0 0 0 0 1 0
3381 1 3.74802 -5.10918 0 0 0 0 1 0
3414 1 3.54048 -4.93988 0 0 0 0 1 0
3415 1 3.7456 -4.91479 0 0 0 0 1 0
3382 1 3.94887 -5.10067 0 0 0 0 1 0
3383 1 4.14569 -5.10115 0 0 0 0 1 0
3416 1 3.95664 -4.90767 0 0 0 0 1 0
3417 1 4.16846 -4.90474 0 0 0 0 1 0
3384 1 4.33739 -5.12959 0 0 0 0 1 0
3418 1 4.37208 -4.92745 0 0 0 0 1 0
3385 1 4.5292 -5.15335 0 0 0 0 1 0
3419 1 4.57103 -4.95315 0 0 0 0 1 0
3386 1 4.72558 -5.16139 0 0 0 0 1 0
3420 1 4.76968 -4.96268 0 0 0 0 1 0
3387 1 4.91961 -5.1935 0 0 0 0 1 0
3421 1 4.96417 -4.99741 0 0 0 0 1 0
3455 1 4.99524 -4.80027 0 0 0 0 1 0
3422 1 5.15592 -5.04121 0 0 0 0 1 0
3456 1 5.1901 -4.83706 0 0 0 0 1 0
3423 1 5.35452 -5.06154 0 0 0 0 1 0
3457 1 5.38283 -4.86294 0 0 0 0 1 0
3424 1 5.55677 -5.05782 0 0 0 0 1 0
3458 1 5.576 -4.852 0 0 0 0 1 0
3425 1 5.76151 -5.06686 0 0 0 0 1 0
3426 1 5.96738 -5.02468 0 0 0 0 1 0
3459 1 5.76787 -4.87022 0 0 0 0 1 0
3460 1 5.95942 -4.82468 0 0 0 0 1 0
3427 1 6.17315 -5.02463 0 0 0 0 1 0
3461 1 6.15795 -4.82859 0 0 0 0 1 0
3394 1 6.35525 -5.19276 0 0 0 0 1 0
3428 1 6.37738 -4.99109 0 0 0 0 1 0
3462 1 6.35748 -4.79402 0 0 0 0 1 0
3429 1 6.58222 -5.02613 0 0 0 0 1 0
3463 1 6.55786 -4.82709 0 0 0 0 1 0
3430 1 6.78957 -5.04029 0 0 0 0 1 0
3464 1 6.75866 -4.84437 0 0 0 0 1 0
3431 1 6.99308 -5.06783 0 0 0 0 1 0
3465 1 6.96209 -4.87111 0 0 0 0 1 0
3432 1 7.18786 -5.0919 0 0 0 0 1 0
3466 1 7.16284 -4.88531 0 0 0 0 1 0
8152 1 2.04714 -4.42187 0 0 0 0 1 0
8119 1 2.04384 -4.60871 0 0 0 0 1 0
3509 1 2.26023 -4.40831 0 0 0 0 1 0
3475 1 2.24046 -4.61129 0 0 0 0 1 0
3476 1 2.43367 -4.59713 0 0 0 0 1 0
3510 1 2.46131 -4.38967 0 0 0 0 1 0
3443 1 2.58963 -4.76001 0 0 0 0 1 0
3444 1 2.77371 -4.77678 0 0 0 0 1 0
3477 1 2.62626 -4.54848 0 0 0 0 1 0
3478 1 2.81258 -4.55111 0 0 0 0 1 0
3479 1 2.99046 -4.60301 0 0 0 0 1 0
3513 1 3.02974 -4.38599 0 0 0 0 1 0
3480 1 3.18025 -4.5737 0 0 0 0 1 0
3514 1 3.21666 -4.36233 0 0 0 0 1 0
3447 1 3.34957 -4.78034 0 0 0 0 1 0
3481 1 3.37199 -4.57507 0 0 0 0 1 0
3515 1 3.40429 -4.36212 0 0 0 0 1 0
3448 1 3.55238 -4.74456 0 0 0 0 1 0
3449 1 3.75946 -4.72264 0 0 0 0 1 0
3482 1 3.56974 -4.54834 0 0 0 0 1 0
3516 1 3.59633 -4.35114 0 0 0 0 1 0
3483 1 3.7761 -4.53009 0 0 0 0 1 0
3450 1 3.96699 -4.71857 0 0 0 0 1 0
3451 1 4.17487 -4.71094 0 0 0 0 1 0
3484 1 3.98651 -4.53093 0 0 0 0 1 0
3485 1 4.19782 -4.51876 0 0 0 0 1 0
3452 1 4.38046 -4.7287 0 0 0 0 1 0
3453 1 4.58573 -4.75478 0 0 0 0 1 0
3486 1 4.40329 -4.53358 0 0 0 0 1 0
3487 1 4.60421 -4.55712 0 0 0 0 1 0
3521 1 4.61635 -4.35425 0 0 0 0 1 0
3454 1 4.79298 -4.76495 0 0 0 0 1 0
3488 1 4.80392 -4.56589 0 0 0 0 1 0
3522 1 4.81215 -4.36274 0 0 0 0 1 0
3489 1 5.00161 -4.60022 0 0 0 0 1 0
3523 1 5.00435 -4.39499 0 0 0 0 1 0
3490 1 5.19856 -4.63033 0 0 0 0 1 0
3524 1 5.19633 -4.42334 0 0 0 0 1 0
3491 1 5.3935 -4.65724 0 0 0 0 1 0
3525 1 5.3857 -4.44793 0 0 0 0 1 0
3492 1 5.58883 -4.64642 0 0 0 0 1 0
3526 1 5.57281 -4.43799 0 0 0 0 1 0
3493 1 5.78305 -4.66043 0 0 0 0 1 0
3494 1 5.98194 -4.6271 0 0 0 0 1 0
3527 1 5.75858 -4.4482 0 0 0 0 1 0
3528 1 5.94537 -4.4321 0 0 0 0 1 0
3495 1 6.1828 -4.62705 0 0 0 0 1 0
3529 1 6.13809 -4.42558 0 0 0 0 1 0
3496 1 6.38614 -4.60119 0 0 0 0 1 0
3530 1 6.33402 -4.41435 0 0 0 0 1 0
3497 1 6.58581 -4.62877 0 0 0 0 1 0
3531 1 6.54369 -4.43103 0 0 0 0 1 0
3498 1 6.78112 -4.64625 0 0 0 0 1 0
3532 1 6.7505 -4.44736 0 0 0 0 1 0
3499 1 6.97214 -4.67057 0 0 0 0 1 0
3533 1 6.95346 -4.46549 0 0 0 0 1 0
3500 1 7.16094 -4.67466 0 0 0 0 1 0
3534 1 7.15071 -4.46046 0 0 0 0 1 0
8185 1 2.03246 -4.23899 0 0 0 0 1 0
8218 1 2.01135 -4.05469 0 0 0 0 1 0
3543 1 2.23626 -4.20972 0 0 0 0 1 0
3577 1 2.21721 -4.01236 0 0 0 0 1 0
3578 1 2.42413 -3.99137 0 0 0 0 1 0
3544 1 2.43535 -4.19118 0 0 0 0 1 0
3511 1 2.65551 -4.3374 0 0 0 0 1 0
3512 1 2.84841 -4.33832 0 0 0 0 1 0
3545 1 2.62865 -4.13658 0 0 0 0 1 0
3579 1 2.62779 -3.94058 0 0 0 0 1 0
3546 1 2.82895 -4.13331 0 0 0 0 1 0
3580 1 2.83285 -3.93346 0 0 0 0 1 0
3547 1 3.02397 -4.1624 0 0 0 0 1 0
3581 1 3.02799 -3.94622 0 0 0 0 1 0
3548 1 3.21909 -4.15889 0 0 0 0 1 0
3582 1 3.22038 -3.95647 0 0 0 0 1 0
3549 1 3.41642 -4.14738 0 0 0 0 1 0
3583 1 3.40826 -3.93219 0 0 0 0 1 0
3550 1 3.61962 -4.1571 0 0 0 0 1 0
3584 1 3.60173 -3.96372 0 0 0 0 1 0
3517 1 3.79651 -4.3352 0 0 0 0 1 0
3585 1 3.80159 -3.94554 0 0 0 0 1 0
3551 1 3.82593 -4.14013 0 0 0 0 1 0
3518 1 4.00125 -4.34395 0 0 0 0 1 0
3552 1 4.03074 -4.15656 0 0 0 0 1 0
3586 1 4.0103 -3.96594 0 0 0 0 1 0
3519 1 4.21262 -4.32599 0 0 0 0 1 0
3587 1 4.21621 -3.93422 0 0 0 0 1 0
3553 1 4.22993 -4.12904 0 0 0 0 1 0
3520 1 4.41738 -4.33796 0 0 0 0 1 0
3554 1 4.42662 -4.1395 0 0 0 0 1 0
3588 1 4.41843 -3.93728 0 0 0 0 1 0
3555 1 4.62124 -4.14825 0 0 0 0 1 0
3589 1 4.61585 -3.94283 0 0 0 0 1 0
3556 1 4.81466 -4.15779 0 0 0 0 1 0
3590 1 4.80885 -3.95193 0 0 0 0 1 0
3557 1 5.00383 -4.1814 0 0 0 0 1 0
3591 1 4.99657 -3.95828 0 0 0 0 1 0
3558 1 5.19154 -4.21547 0 0 0 0 1 0
3592 1 5.17939 -4.00622 0 0 0 0 1 0
3559 1 5.37787 -4.23127 0 0 0 0 1 0
3593 1 5.36911 -4.01321 0 0 0 0 1 0
3560 1 5.56274 -4.22756 0 0 0 0 1 0
3594 1 5.56367 -4.02471 0 0 0 0 1 0
3561 1 5.7488 -4.23095 0 0 0 0 1 0
3562 1 5.93883 -4.2326 0 0 0 0 1 0
3595 1 5.76539 -4.02603 0 0 0 0 1 0
3596 1 5.97022 -4.03752 0 0 0 0 1 0
3563 1 6.13761 -4.22232 0 0 0 0 1 0
3564 1 6.34412 -4.22496 0 0 0 0 1 0
3597 1 6.17615 -4.02713 0 0 0 0 1 0
3598 1 6.37764 -4.03552 0 0 0 0 1 0
3565 1 6.55645 -4.24028 0 0 0 0 1 0
3599 1 6.57398 -4.04539 0 0 0 0 1 0
3566 1 6.76767 -4.25491 0 0 0 0 1 0
3600 1 6.76804 -4.05749 0 0 0 0 1 0
3567 1 6.97491 -4.26689 0 0 0 0 1 0
3601 1 6.96481 -4.06866 0 0 0 0 1 0
3568 1 7.17452 -4.25285 0 0 0 0 1 0
3602 1 7.16509 -4.04623 0 0 0 0 1 0
3611 1 2.13364 -3.83444 0 0 0 0 1 0
3645 1 2.11101 -3.64157 0 0 0 0 1 0
3612 1 2.34771 -3.80935 0 0 0 0 1 0
3646 1 2.31678 -3.61938 0 0 0 0 1 0
3613 1 2.55239 -3.7622 0 0 0 0 1 0
3647 1 2.52757 -3.57442 0 0 0 0 1 0
3614 1 2.76435 -3.74314 0 0 0 0 1 0
3648 1 2.73721 -3.54964 0 0 0 0 1 0
3615 1 2.97126 -3.73758 0 0 0 0 1 0
3649 1 2.94331 -3.53875 0 0 0 0 1 0
3616 1 3.17231 -3.75222 0 0 0 0 1 0
3650 1 3.14977 -3.5508 0 0 0 0 1 0
3617 1 3.36966 -3.72582 0 0 0 0 1 0
3651 1 3.35739 -3.529 0 0 0 0 1 0
3618 1 3.57332 -3.7653 0 0 0 0 1 0
3652 1 3.56595 -3.57061 0 0 0 0 1 0
3653 1 3.77395 -3.55659 0 0 0 0 1 0
3619 1 3.7779 -3.75103 0 0 0 0 1 0
3620 1 3.98378 -3.77532 0 0 0 0 1 0
3621 1 4.18615 -3.74318 0 0 0 0 1 0
3654 1 3.97769 -3.57909 0 0 0 0 1 0
3655 1 4.17924 -3.5496 0 0 0 0 1 0
3622 1 4.3875 -3.73511 0 0 0 0 1 0
3656 1 4.3811 -3.53322 0 0 0 0 1 0
3623 1 4.58578 -3.74195 0 0 0 0 1 0
3657 1 4.58302 -3.54369 0 0 0 0 1 0
3624 1 4.78321 -3.74597 0 0 0 0 1 0
3658 1 4.78458 -3.54222 0 0 0 0 1 0
3625 1 4.97798 -3.74206 0 0 0 0 1 0
3659 1 4.98582 -3.53977 0 0 0 0 1 0
3626 1 5.16735 -3.79001 0 0 0 0 1 0
3660 1 5.18438 -3.58102 0 0 0 0 1 0
3627 1 5.36163 -3.80685 0 0 0 0 1 0
3661 1 5.38782 -3.61121 0 0 0 0 1 0
3628 1 5.56239 -3.82822 0 0 0 0 1 0
3662 1 5.59939 -3.63883 0 0 0 0 1 0
3629 1 5.76949 -3.83117 0 0 0 0 1 0
3663 1 5.81562 -3.64524 0 0 0 0 1 0
3630 1 5.97809 -3.84465 0 0 0 0 1 0
3664 1 6.02544 -3.65388 0 0 0 0 1 0
3631 1 6.18794 -3.83201 0 0 0 0 1 0
3632 1 6.39335 -3.84076 0 0 0 0 1 0
3665 1 6.23061 -3.63802 0 0 0 0 1 0
3666 1 6.43446 -3.64771 0 0 0 0 1 0
3633 1 6.59736 -3.84635 0 0 0 0 1 0
3667 1 6.63401 -3.64838 0 0 0 0 1 0
3634 1 6.79739 -3.85732 0 0 0 0 1 0
3668 1 6.82968 -3.65665 0 0 0 0 1 0
3635 1 6.99599 -3.86973 0 0 0 0 1 0
3669 1 7.02424 -3.66825 0 0 0 0 1 0
3636 1 7.19278 -3.83821 0 0 0 0 1 0
3670 1 7.21556 -3.62939 0 0 0 0 1 0
3713 1 2.06285 -3.25437 0 0 0 0 1 0
3679 1 2.11775 -3.4454 0 0 0 0 1 0
3747 1 2.01988 -3.0552 0 0 0 0 1 0
3680 1 2.33282 -3.42684 0 0 0 0 1 0
3714 1 2.27375 -3.24471 0 0 0 0 1 0
3748 1 2.22078 -3.05525 0 0 0 0 1 0
3681 1 2.53929 -3.38246 0 0 0 0 1 0
3715 1 2.48995 -3.19995 0 0 0 0 1 0
3682 1 2.74602 -3.35457 0 0 0 0 1 0
3716 1 2.70419 -3.16536 0 0 0 0 1 0
3683 1 2.95509 -3.34314 0 0 0 0 1 0
3717 1 2.91149 -3.14923 0 0 0 0 1 0
3684 1 3.16251 -3.35206 0 0 0 0 1 0
3718 1 3.11592 -3.15422 0 0 0 0 1 0
3719 1 3.31641 -3.14203 0 0 0 0 1 0
3685 1 3.36821 -3.33605 0 0 0 0 1 0
3686 1 3.57548 -3.37577 0 0 0 0 1 0
3720 1 3.52243 -3.17582 0 0 0 0 1 0
3721 1 3.72054 -3.16635 0 0 0 0 1 0
3687 1 3.77809 -3.36046 0 0 0 0 1 0
3688 1 3.97654 -3.37643 0 0 0 0 1 0
3689 1 4.1727 -3.3537 0 0 0 0 1 0
3722 1 3.92273 -3.17272 0 0 0 0 1 0
3723 1 4.12393 -3.1616 0 0 0 0 1 0
3690 1 4.36841 -3.33242 0 0 0 0 1 0
3724 1 4.32871 -3.1386 0 0 0 0 1 0
3691 1 4.56508 -3.34465 0 0 0 0 1 0
3725 1 4.53543 -3.14456 0 0 0 0 1 0
3726 1 4.73681 -3.14248 0 0 0 0 1 0
3692 1 4.76158 -3.34102 0 0 0 0 1 0
3693 1 4.96057 -3.34061 0 0 0 0 1 0
3727 1 4.9387 -3.14374 0 0 0 0 1 0
3694 1 5.16208 -3.37335 0 0 0 0 1 0
3728 1 5.14204 -3.17081 0 0 0 0 1 0
3695 1 5.36325 -3.41282 0 0 0 0 1 0
3729 1 5.34361 -3.21224 0 0 0 0 1 0
3730 1 5.54549 -3.25049 0 0 0 0 1 0
3696 1 5.56891 -3.44627 0 0 0 0 1 0
3764 1 5.55774 -3.05737 0 0 0 0 1 0
3697 1 5.77643 -3.45717 0 0 0 0 1 0
3731 1 5.75243 -3.26893 0 0 0 0 1 0
3732 1 5.96359 -3.25866 0 0 0 0 1 0
3765 1 5.77322 -3.08258 0 0 0 0 1 0
3698 1 5.97944 -3.45837 0 0 0 0 1 0
3766 1 5.98075 -3.05997 0 0 0 0 1 0
3699 1 6.17821 -3.44445 0 0 0 0 1 0
3733 1 6.17242 -3.2515 0 0 0 0 1 0
3700 1 6.38272 -3.45411 0 0 0 0 1 0
3734 1 6.38362 -3.26052 0 0 0 0 1 0