ITEM: TIMESTEP
2000
ITEM: NUMBER OF ATOMS
10513
ITEM: BOX BOUNDS ff ff pp
0.0000000000000000e+00 2.2000000000000000e+01
-1.0000000000000000e+01 1.0000000000000000e+01
-2.0000000000000000e-02 2.0000000000000000e-02
ITEM: ATOMS id type x y vx vy fx fy c_den c_phase
1501 2 2 -10 0 0 0 0 1 5
1551 2 2 -9.8 0 0 0 0 1 5
1601 2 2 -9.6 0 0 0 0 1 5
1502 2 2.2 -10 0 0 0 0 1 5
1503 2 2.4 -10 0 0 0 0 1 5
1552 2 2.2 -9.8 0 0 0 0 1 5
1553 2 2.4 -9.8 0 0 0 0 1 5
1602 2 2.2 -9.6 0 0 0 0 1 5
1603 2 2.4 -9.6 0 0 0 0 1 5
1504 2 2.6 -10 0 0 0 0 1 5
1505 2 2.8 -10 0 0 0 0 1 5
1554 2 2.6 -9.8 0 0 0 0 1 5
1555 2 2.8 -9.8 0 0 0 0 1 5
1604 2 2.6 -9.6 0 0 0 0 1 5
1605 2 2.8 -9.6 0 0 0 0 1 5
1506 2 3 -10 0 0 0 0 1 5
1507 2 3.2 -10 0 0 0 0 1 5
1556 2 3 -9.8 0 0 0 0 1 5
1557 2 3.2 -9.8 0 0 0 0 1 5
1606 2 3 -9.6 0 0 0 0 1 5
1607 2 3.2 -9.6 0 0 0 0 1 5
1508 2 3.4 -10 0 0 0 0 1 5
1509 2 3.6 -10 0 0 0 0 1 5
1558 2 3.4 -9.8 0 0 0 0 1 5
1559 2 3.6 -9.8 0 0 0 0 1 5
1608 2 3.4 -9.6 0 0 0 0 1 5
1609 2 3.6 -9.6 0 0 0 0 1 5
1510 2 3.8 -10 0 0 0 0 1 5
1560 2 3.8 -9.8 0 0 0 0 1 5
1610 2 3.8 -9.6 0 0 0 0 1 5
1511 2 4 -10 0 0 0 0 1 5
1561 2 4 -9.8 0 0 0 0 1 5
1611 2 4 -9.6 0 0 0 0 1 5
1512 2 4.2 -10 0 0 0 0 1 5
1562 2 4.2 -9.8 0 0 0 0 1 5
1612 2 4.2 -9.6 0 0 0 0 1 5
1513 2 4.4 -10 0 0 0 0 1 5
1514 2 4.6 -10 0 0 0 0 1 5
1563 2 4.4 -9.8 0 0 0 0 1 5
1564 2 4.6 -9.8 0 0 0 0 1 5
1613 2 4.4 -9.6 0 0 0 0 1 5
1614 2 4.6 -9.6 0 0 0 0 1 5
1515 2 4.8 -10 0 0 0 0 1 5
1516 2 5 -10 0 0 0 0 1 5
1565 2 4.8 -9.8 0 0 0 0 1 5
1566 2 5 -9.8 0 0 0 0 1 5
1615 2 4.8 -9.6 0 0 0 0 1 5
1616 2 5 -9.6 0 0 0 0 1 5
1517 2 5.2 -10 0 0 0 0 1 5
1518 2 5.4 -10 0 0 0 0 1 5
1567 2 5.2 -9.8 0 0 0 0 1 5
1568 2 5.4 -9.8 0 0 0 0 1 5
1617 2 5.2 -9.6 0 0 0 0 1 5
1618 2 5.4 -9.6 0 0 0 0 1 5
1519 2 5.6 -10 0 0 0 0 1 5
1520 2 5.8 -10 0 0 0 0 1 5
1569 2 5.6 -9.8 0 0 0 0 1 5
1570 2 5.8 -9.8 0 0 0 0 1 5
1619 2 5.6 -9.6 0 0 0 0 1 5
1620 2 5.8 -9.6 0 0 0 0 1 5
1521 2 6 -10 0 0 0 0 1 5
1522 2 6.2 -10 0 0 0 0 1 5
1571 2 6 -9.8 0 0 0 0 1 5
1572 2 6.2 -9.8 0 0 0 0 1 5
1621 2 6 -9.6 0 0 0 0 1 5
1622 2 6.2 -9.6 0 0 0 0 1 5
1523 2 6.4 -10 0 0 0 0 1 5
1524 2 6.6 -10 0 0 0 0 1 5
1573 2 6.4 -9.8 0 0 0 0 1 5
1574 2 6.6 -9.8 0 0 0 0 1 5
1623 2 6.4 -9.6 0 0 0 0 1 5
1624 2 6.6 -9.6 0 0 0 0 1 5
1525 2 6.8 -10 0 0 0 0 1 5
1526 2 7 -10 0 0 0 0 1 5
1575 2 6.8 -9.8 0 0 0 0 1 5
1576 2 7 -9.8 0 0 0 0 1 5
1625 2 6.8 -9.6 0 0 0 0 1 5
1626 2 7 -9.6 0 0 0 0 1 5
1527 2 7.2 -10 0 0 0 0 1 5
1577 2 7.2 -9.8 0 0 0 0 1 5
1627 2 7.2 -9.6 0 0 0 0 1 5
1528 2 7.4 -10 0 0 0 0 1 5
1529 2 7.6 -10 0 0 0 0 1 5
1578 2 7.4 -9.8 0 0 0 0 1 5
1579 2 7.6 -9.8 0 0 0 0 1 5
1628 2 7.4 -9.6 0 0 0 0 1 5
1629 2 7.6 -9.6 0 0 0 0 1 5
1530 2 7.8 -10 0 0 0 0 1 5
1531 2 8 -10 0 0 0 0 1 5
1580 2 7.8 -9.8 0 0 0 0 1 5
1581 2 8 -9.8 0 0 0 0 1 5
1630 2 7.8 -9.6 0 0 0 0 1 5
1631 2 8 -9.6 0 0 0 0 1 5
1532 2 8.2 -10 0 0 0 0 1 5
1533 2 8.4 -10 0 0 0 0 1 5
1582 2 8.2 -9.8 0 0 0 0 1 5
1583 2 8.4 -9.8 0 0 0 0 1 5
1632 2 8.2 -9.6 0 0 0 0 1 5
1633 2 8.4 -9.6 0 0 0 0 1 5
1534 2 8.6 -10 0 0 0 0 1 5
1535 2 8.8 -10 0 0 0 0 1 5
1584 2 8.6 -9.8 0 0 0 0 1 5
1585 2 8.8 -9.8 0 0 0 0 1 5
1634 2 8.6 -9.6 0 0 0 0 1 5
1635 2 8.8 -9.6 0 0 0 0 1 5
1536 2 9 -10 0 0 0 0 1 5
1537 2 9.2 -10 0 0 0 0 1 5
1586 2 9 -9.8 0 0 0 0 1 5
1587 2 9.2 -9.8 0 0 0 0 1 5
1636 2 9 -9.6 0 0 0 0 1 5
1637 2 9.2 -9.6 0 0 0 0 1 5
1538 2 9.4 -10 0 0 0 0 1 5
1539 2 9.6 -10 0 0 0 0 1 5
1588 2 9.4 -9.8 0 0 0 0 1 5
1589 2 9.6 -9.8 0 0 0 0 1 5
1638 2 9.4 -9.6 0 0 0 0 1 5
1639 2 9.6 -9.6 0 0 0 0 1 5
1540 2 9.8 -10 0 0 0 0 1 5
1590 2 9.8 -9.8 0 0 0 0 1 5
1640 2 9.8 -9.6 0 0 0 0 1 5
1541 2 10 -10 0 0 0 0 1 5
1591 2 10 -9.8 0 0 0 0 1 5
1641 2 10 -9.6 0 0 0 0 1 5
1542 2 10.2 -10 0 0 0 0 1 5
1592 2 10.2 -9.8 0 0 0 0 1 5
1642 2 10.2 -9.6 0 0 0 0 1 5
1543 2 10.4 -10 0 0 0 0 1 5
1593 2 10.4 -9.8 0 0 0 0 1 5
1643 2 10.4 -9.6 0 0 0 0 1 5
1544 2 10.6 -10 0 0 0 0 1 5
1594 2 10.6 -9.8 0 0 0 0 1 5
1644 2 10.6 -9.6 0 0 0 0 1 5
1545 2 10.8 -10 0 0 0 0 1 5
1595 2 10.8 -9.8 0 0 0 0 1 5
1645 2 10.8 -9.6 0 0 0 0 1 5
1651 2 2 -9.4 0 0 0 0 1 5
1701 2 2 -9.2 0 0 0 0 1 5
1652 2 2.2 -9.4 0 0 0 0 1 5
1653 2 2.4 -9.4 0 0 0 0 1 5
1702 2 2.2 -9.2 0 0 0 0 1 5
1703 2 2.4 -9.2 0 0 0 0 1 5
1654 2 2.6 -9.4 0 0 0 0 1 5
1655 2 2.8 -9.4 0 0 0 0 1 5
1704 2 2.6 -9.2 0 0 0 0 1 5
1705 2 2.8 -9.2 0 0 0 0 1 5
1656 2 3 -9.4 0 0 0 0 1 5
1657 2 3.2 -9.4 0 0 0 0 1 5
1706 2 3 -9.2 0 0 0 0 1 5
1707 2 3.2 -9.2 0 0 0 0 1 5
1658 2 3.4 -9.4 0 0 0 0 1 5
1659 2 3.6 -9.4 0 0 0 0 1 5
1708 2 3.4 -9.2 0 0 0 0 1 5
1709 2 3.6 -9.2 0 0 0 0 1 5
1660 2 3.8 -9.4 0 0 0 0 1 5
1710 2 3.8 -9.2 0 0 0 0 1 5
1661 2 4 -9.4 0 0 0 0 1 5
1711 2 4 -9.2 0 0 0 0 1 5
1662 2 4.2 -9.4 0 0 0 0 1 5
1712 2 4.2 -9.2 0 0 0 0 1 5
1663 2 4.4 -9.4 0 0 0 0 1 5
1664 2 4.6 -9.4 0 0 0 0 1 5
1713 2 4.4 -9.2 0 0 0 0 1 5
1714 2 4.6 -9.2 0 0 0 0 1 5
1665 2 4.8 -9.4 0 0 0 0 1 5
1666 2 5 -9.4 0 0 0 0 1 5
1715 2 4.8 -9.2 0 0 0 0 1 5
1716 2 5 -9.2 0 0 0 0 1 5
1667 2 5.2 -9.4 0 0 0 0 1 5
1668 2 5.4 -9.4 0 0 0 0 1 5
1717 2 5.2 -9.2 0 0 0 0 1 5
1718 2 5.4 -9.2 0 0 0 0 1 5
1669 2 5.6 -9.4 0 0 0 0 1 5
1670 2 5.8 -9.4 0 0 0 0 1 5
1719 2 5.6 -9.2 0 0 0 0 1 5
1720 2 5.8 -9.2 0 0 0 0 1 5
1671 2 6 -9.4 0 0 0 0 1 5
1672 2 6.2 -9.4 0 0 0 0 1 5
1721 2 6 -9.2 0 0 0 0 1 5
1722 2 6.2 -9.2 0 0 0 0 1 5
1673 2 6.4 -9.4 0 0 0 0 1 5
1674 2 6.6 -9.4 0 0 0 0 1 5
1723 2 6.4 -9.2 0 0 0 0 1 5
1724 2 6.6 -9.2 0 0 0 0 1 5
1675 2 6.8 -9.4 0 0 0 0 1 5
1676 2 7 -9.4 0 0 0 0 1 5
1725 2 6.8 -9.2 0 0 0 0 1 5
1726 2 7 -9.2 0 0 0 0 1 5
1677 2 7.2 -9.4 0 0 0 0 1 5
1727 2 7.2 -9.2 0 0 0 0 1 5
1678 2 7.4 -9.4 0 0 0 0 1 5
1679 2 7.6 -9.4 0 0 0 0 1 5
1728 2 7.4 -9.2 0 0 0 0 1 5
1729 2 7.6 -9.2 0 0 0 0 1 5
1680 2 7.8 -9.4 0 0 0 0 1 5
1681 2 8 -9.4 0 0 0 0 1 5
1730 2 7.8 -9.2 0 0 0 0 1 5
1731 2 8 -9.2 0 0 0 0 1 5
1682 2 8.2 -9.4 0 0 0 0 1 5
1683 2 8.4 -9.4 0 0 0 0 1 5
1732 2 8.2 -9.2 0 0 0 0 1 5
1733 2 8.4 -9.2 0 0 0 0 1 5
1684 2 8.6 -9.4 0 0 0 0 1 5
1685 2 8.8 -9.4 0 0 0 0 1 5
1734 2 8.6 -9.2 0 0 0 0 1 5
1735 2 8.8 -9.2 0 0 0 0 1 5
1686 2 9 -9.4 0 0 0 0 1 5
1687 2 9.2 -9.4 0 0 0 0 1 5
1736 2 9 -9.2 0 0 0 0 1 5
1737 2 9.2 -9.2 0 0 0 0 1 5
1688 2 9.4 -9.4 0 0 0 0 1 5
1689 2 9.6 -9.4 0 0 0 0 1 5
1738 2 9.4 -9.2 0 0 0 0 1 5
1739 2 9.6 -9.2 0 0 0 0 1 5
1690 2 9.8 -9.4 0 0 0 0 1 5
1740 2 9.8 -9.2 0 0 0 0 1 5
1691 2 10 -9.4 0 0 0 0 1 5
1741 2 10 -9.2 0 0 0 0 1 5
1692 2 10.2 -9.4 0 0 0 0 1 5
1742 2 10.2 -9.2 0 0 0 0 1 5
1693 2 10.4 -9.4 0 0 0 0 1 5
1743 2 10.4 -9.2 0 0 0 0 1 5
1694 2 10.6 -9.4 0 0 0 0 1 5
1744 2 10.6 -9.2 0 0 0 0 1 5
1695 2 10.8 -9.4 0 0 0 0 1 5
1745 2 10.8 -9.2 0 0 0 0 1 5
1751 2 2 -9 0 0 0 0 1 5
1801 2 2 -8.8 0 0 0 0 1 5
1752 2 2.2 -9 0 0 0 0 1 5
1753 2 2.4 -9 0 0 0 0 1 5
1802 2 2.2 -8.8 0 0 0 0 1 5
1803 2 2.4 -8.8 0 0 0 0 1 5
1754 2 2.6 -9 0 0 0 0 1 5
1755 2 2.8 -9 0 0 0 0 1 5
1804 2 2.6 -8.8 0 0 0 0 1 5
1805 2 2.8 -8.8 0 0 0 0 1 5
1756 2 3 -9 0 0 0 0 1 5
1757 2 3.2 -9 0 0 0 0 1 5
1806 2 3 -8.8 0 0 0 0 1 5
1807 2 3.2 -8.8 0 0 0 0 1 5
1758 2 3.4 -9 0 0 0 0 1 5
1759 2 3.6 -9 0 0 0 0 1 5
1808 2 3.4 -8.8 0 0 0 0 1 5
1809 2 3.6 -8.8 0 0 0 0 1 5
1760 2 3.8 -9 0 0 0 0 1 5
1810 2 3.8 -8.8 0 0 0 0 1 5
1761 2 4 -9 0 0 0 0 1 5
1811 2 4 -8.8 0 0 0 0 1 5
1762 2 4.2 -9 0 0 0 0 1 5
1812 2 4.2 -8.8 0 0 0 0 1 5
1763 2 4.4 -9 0 0 0 0 1 5
1764 2 4.6 -9 0 0 0 0 1 5
1813 2 4.4 -8.8 0 0 0 0 1 5
1814 2 4.6 -8.8 0 0 0 0 1 5
1765 2 4.8 -9 0 0 0 0 1 5
1766 2 5 -9 0 0 0 0 1 5
1815 2 4.8 -8.8 0 0 0 0 1 5
1816 2 5 -8.8 0 0 0 0 1 5
1767 2 5.2 -9 0 0 0 0 1 5
1768 2 5.4 -9 0 0 0 0 1 5
1817 2 5.2 -8.8 0 0 0 0 1 5
1818 2 5.4 -8.8 0 0 0 0 1 5
1769 2 5.6 -9 0 0 0 0 1 5
1770 2 5.8 -9 0 0 0 0 1 5
1819 2 5.6 -8.8 0 0 0 0 1 5
1820 2 5.8 -8.8 0 0 0 0 1 5
1771 2 6 -9 0 0 0 0 1 5
1772 2 6.2 -9 0 0 0 0 1 5
1821 2 6 -8.8 0 0 0 0 1 5
1822 2 6.2 -8.8 0 0 0 0 1 5
1773 2 6.4 -9 0 0 0 0 1 5
1774 2 6.6 -9 0 0 0 0 1 5
1823 2 6.4 -8.8 0 0 0 0 1 5
1824 2 6.6 -8.8 0 0 0 0 1 5
1775 2 6.8 -9 0 0 0 0 1 5
1776 2 7 -9 0 0 0 0 1 5
1825 2 6.8 -8.8 0 0 0 0 1 5
1826 2 7 -8.8 0 0 0 0 1 5
1777 2 7.2 -9 0 0 0 0 1 5
1827 2 7.2 -8.8 0 0 0 0 1 5
1778 2 7.4 -9 0 0 0 0 1 5
1779 2 7.6 -9 0 0 0 0 1 5
1828 2 7.4 -8.8 0 0 0 0 1 5
1829 2 7.6 -8.8 0 0 0 0 1 5
1780 2 7.8 -9 0 0 0 0 1 5
1781 2 8 -9 0 0 0 0 1 5
1830 2 7.8 -8.8 0 0 0 0 1 5
1831 2 8 -8.8 0 0 0 0 1 5
1782 2 8.2 -9 0 0 0 0 1 5
1783 2 8.4 -9 0 0 0 0 1 5
1832 2 8.2 -8.8 0 0 0 0 1 5
1833 2 8.4 -8.8 0 0 0 0 1 5
1784 2 8.6 -9 0 0 0 0 1 5
1785 2 8.8 -9 0 0 0 0 1 5
1834 2 8.6 -8.8 0 0 0 0 1 5
1835 2 8.8 -8.8 0 0 0 0 1 5
1786 2 9 -9 0 0 0 0 1 5
1787 2 9.2 -9 0 0 0 0 1 5
1836 2 9 -8.8 0 0 0 0 1 5
1837 2 9.2 -8.8 0 0 0 0 1 5
1788 2 9.4 -9 0 0 0 0 1 5
1789 2 9.6 -9 0 0 0 0 1 5
1838 2 9.4 -8.8 0 0 0 0 1 5
1839 2 9.6 -8.8 0 0 0 0 1 5
1790 2 9.8 -9 0 0 0 0 1 5
1840 2 9.8 -8.8 0 0 0 0 1 5
1791 2 10 -9 0 0 0 0 1 5
1841 2 10 -8.8 0 0 0 0 1 5
1792 2 10.2 -9 0 0 0 0 1 5
1842 2 10.2 -8.8 0 0 0 0 1 5
1793 2 10.4 -9 0 0 0 0 1 5
1843 2 10.4 -8.8 0 0 0 0 1 5
1794 2 10.6 -9 0 0 0 0 1 5
1844 2 10.6 -8.8 0 0 0 0 1 5
1795 2 10.8 -9 0 0 0 0 1 5
1845 2 10.8 -8.8 0 0 0 0 1 5
1851 2 2 -8.6 0 0 0 0 1 5
1901 2 2 -8.4 0 0 0 0 1 5
1852 2 2.2 -8.6 0 0 0 0 1 5
1853 2 2.4 -8.6 0 0 0 0 1 5
1902 2 2.2 -8.4 0 0 0 0 1 5
1903 2 2.4 -8.4 0 0 0 0 1 5
1854 2 2.6 -8.6 0 0 0 0 1 5
1855 2 2.8 -8.6 0 0 0 0 1 5
1904 2 2.6 -8.4 0 0 0 0 1 5
1905 2 2.8 -8.4 0 0 0 0 1 5
1856 2 3 -8.6 0 0 0 0 1 5
1857 2 3.2 -8.6 0 0 0 0 1 5
1906 2 3 -8.4 0 0 0 0 1 5
1907 2 3.2 -8.4 0 0 0 0 1 5
1858 2 3.4 -8.6 0 0 0 0 1 5
1859 2 3.6 -8.6 0 0 0 0 1 5
1908 2 3.4 -8.4 0 0 0 0 1 5
1909 2 3.6 -8.4 0 0 0 0 1 5
1860 2 3.8 -8.6 0 0 0 0 1 5
1910 2 3.8 -8.4 0 0 0 0 1 5
1861 2 4 -8.6 0 0 0 0 1 5
1911 2 4 -8.4 0 0 0 0 1 5
1862 2 4.2 -8.6 0 0 0 0 1 5
1912 2 4.2 -8.4 0 0 0 0 1 5
1863 2 4.4 -8.6 0 0 0 0 1 5
1864 2 4.6 -8.6 0 0 0 0 1 5
1913 2 4.4 -8.4 0 0 0 0 1 5
1914 2 4.6 -8.4 0 0 0 0 1 5
1865 2 4.8 -8.6 0 0 0 0 1 5
1866 2 5 -8.6 0 0 0 0 1 5
1915 2 4.8 -8.4 0 0 0 0 1 5
1916 2 5 -8.4 0 0 0 0 1 5
1867 2 5.2 -8.6 0 0 0 0 1 5
1868 2 5.4 -8.6 0 0 0 0 1 5
1917 2 5.2 -8.4 0 0 0 0 1 5
1918 2 5.4 -8.4 0 0 0 0 1 5
1869 2 5.6 -8.6 0 0 0 0 1 5
1870 2 5.8 -8.6 0 0 0 0 1 5
1919 2 5.6 -8.4 0 0 0 0 1 5
1920 2 5.8 -8.4 0 0 0 0 1 5
1871 2 6 -8.6 0 0 0 0 1 5
1872 2 6.2 -8.6 0 0 0 0 1 5
1921 2 6 -8.4 0 0 0 0 1 5
1922 2 6.2 -8.4 0 0 0 0 1 5
1873 2 6.4 -8.6 0 0 0 0 1 5
1874 2 6.6 -8.6 0 0 0 0 1 5
1923 2 6.4 -8.4 0 0 0 0 1 5
1924 2 6.6 -8.4 0 0 0 0 1 5
1875 2 6.8 -8.6 0 0 0 0 1 5
1876 2 7 -8.6 0 0 0 0 1 5
1925 2 6.8 -8.4 0 0 0 0 1 5
1926 2 7 -8.4 0 0 0 0 1 5
1877 2 7.2 -8.6 0 0 0 0 1 5
1927 2 7.2 -8.4 0 0 0 0 1 5
1878 2 7.4 -8.6 0 0 0 0 1 5
1879 2 7.6 -8.6 0 0 0 0 1 5
1928 2 7.4 -8.4 0 0 0 0 1 5
1929 2 7.6 -8.4 0 0 0 0 1 5
1880 2 7.8 -8.6 0 0 0 0 1 5
1881 2 8 -8.6 0 0 0 0 1 5
1930 2 7.8 -8.4 0 0 0 0 1 5
1931 2 8 -8.4 0 0 0 0 1 5
1882 2 8.2 -8.6 0 0 0 0 1 5
1883 2 8.4 -8.6 0 0 0 0 1 5
1932 2 8.2 -8.4 0 0 0 0 1 5
1933 2 8.4 -8.4 0 0 0 0 1 5
1884 2 8.6 -8.6 0 0 0 0 1 5
1885 2 8.8 -8.6 0 0 0 0 1 5
1934 2 8.6 -8.4 0 0 0 0 1 5
1935 2 8.8 -8.4 0 0 0 0 1 5
1886 2 9 -8.6 0 0 0 0 1 5
1887 2 9.2 -8.6 0 0 0 0 1 5
1936 2 9 -8.4 0 0 0 0 1 5
1937 2 9.2 -8.4 0 0 0 0 1 5
1888 2 9.4 -8.6 0 0 0 0 1 5
1889 2 9.6 -8.6 0 0 0 0 1 5
1938 2 9.4 -8.4 0 0 0 0 1 5
1939 2 9.6 -8.4 0 0 0 0 1 5
1890 2 9.8 -8.6 0 0 0 0 1 5
1940 2 9.8 -8.4 0 0 0 0 1 5
1891 2 10 -8.6 0 0 0 0 1 5
1941 2 10 -8.4 0 0 0 0 1 5
1892 2 10.2 -8.6 0 0 0 0 1 5
1942 2 10.2 -8.4 0 0 0 0 1 5
1893 2 10.4 -8.6 0 0 0 0 1 5
1943 2 10.4 -8.4 0 0 0 0 1 5
1894 2 10.6 -8.6 0 0 0 0 1 5
1944 2 10.6 -8.4 0 0 0 0 1 5
1895 2 10.8 -8.6 0 0 0 0 1 5
1945 2 10.8 -8.4 0 0 0 0 1 5
1951 2 2 -8.2 0 0 0 0 1 5
2001 2 2 -8 0 0 0 0 1 5
1952 2 2.2 -8.2 0 0 0 0 1 5
1953 2 2.4 -8.2 0 0 0 0 1 5
2002 2 2.2 -8 0 0 0 0 1 5
2003 2 2.4 -8 0 0 0 0 1 5
1954 2 2.6 -8.2 0 0 0 0 1 5
1955 2 2.8 -8.2 0 0 0 0 1 5
2004 2 2.6 -8 0 0 0 0 1 5
2005 2 2.8 -8 0 0 0 0 1 5
1956 2 3 -8.2 0 0 0 0 1 5
1957 2 3.2 -8.2 0 0 0 0 1 5
2006 2 3 -8 0 0 0 0 1 5
2007 2 3.2 -8 0 0 0 0 1 5
1958 2 3.4 -8.2 0 0 0 0 1 5
1959 2 3.6 -8.2 0 0 0 0 1 5
2008 2 3.4 -8 0 0 0 0 1 5
2009 2 3.6 -8 0 0 0 0 1 5
1960 2 3.8 -8.2 0 0 0 0 1 5
2010 2 3.8 -8 0 0 0 0 1 5
1961 2 4 -8.2 0 0 0 0 1 5
2011 2 4 -8 0 0 0 0 1 5
1962 2 4.2 -8.2 0 0 0 0 1 5
2012 2 4.2 -8 0 0 0 0 1 5
1963 2 4.4 -8.2 0 0 0 0 1 5
1964 2 4.6 -8.2 0 0 0 0 1 5
2013 2 4.4 -8 0 0 0 0 1 5
2014 2 4.6 -8 0 0 0 0 1 5
1965 2 4.8 -8.2 0 0 0 0 1 5
1966 2 5 -8.2 0 0 0 0 1 5
2015 2 4.8 -8 0 0 0 0 1 5
2016 2 5 -8 0 0 0 0 1 5
1967 2 5.2 -8.2 0 0 0 0 1 5
1968 2 5.4 -8.2 0 0 0 0 1 5
2017 2 5.2 -8 0 0 0 0 1 5
2018 2 5.4 -8 0 0 0 0 1 5
1969 2 5.6 -8.2 0 0 0 0 1 5
1970 2 5.8 -8.2 0 0 0 0 1 5
2019 2 5.6 -8 0 0 0 0 1 5
2020 2 5.8 -8 0 0 0 0 1 5
1971 2 6 -8.2 0 0 0 0 1 5
1972 2 6.2 -8.2 0 0 0 0 1 5
2021 2 6 -8 0 0 0 0 1 5
2022 2 6.2 -8 0 0 0 0 1 5
1973 2 6.4 -8.2 0 0 0 0 1 5
1974 2 6.6 -8.2 0 0 0 0 1 5
2023 2 6.4 -8 0 0 0 0 1 5
2024 2 6.6 -8 0 0 0 0 1 5
1975 2 6.8 -8.2 0 0 0 0 1 5
1976 2 7 -8.2 0 0 0 0 1 5
2025 2 6.8 -8 0 0 0 0 1 5
2026 2 7 -8 0 0 0 0 1 5
1977 2 7.2 -8.2 0 0 0 0 1 5
2027 2 7.2 -8 0 0 0 0 1 5
1978 2 7.4 -8.2 0 0 0 0 1 5
1979 2 7.6 -8.2 0 0 0 0 1 5
2028 2 7.4 -8 0 0 0 0 1 5
2029 2 7.6 -8 0 0 0 0 1 5
1980 2 7.8 -8.2 0 0 0 0 1 5
1981 2 8 -8.2 0 0 0 0 1 5
2030 2 7.8 -8 0 0 0 0 1 5
2031 2 8 -8 0 0 0 0 1 5
1982 2 8.2 -8.2 0 0 0 0 1 5
1983 2 8.4 -8.2 0 0 0 0 1 5
2032 2 8.2 -8 0 0 0 0 1 5
2033 2 8.4 -8 0 0 0 0 1 5
1984 2 8.6 -8.2 0 0 0 0 1 5
1985 2 8.8 -8.2 0 0 0 0 1 5
2034 2 8.6 -8 0 0 0 0 1 5
2035 2 8.8 -8 0 0 0 0 1 5
1986 2 9 -8.2 0 0 0 0 1 5
1987 2 9.2 -8.2 0 0 0 0 1 5
2036 2 9 -8 0 0 0 0 1 5
2037 2 9.2 -8 0 0 0 0 1 5
1988 2 9.4 -8.2 0 0 0 0 1 5
1989 2 9.6 -8.2 0 0 0 0 1 5
2038 2 9.4 -8 0 0 0 0 1 5
2039 2 9.6 -8 0 0 0 0 1 5
1990 2 9.8 -8.2 0 0 0 0 1 5
2040 2 9.8 -8 0 0 0 0 1 5
1991 2 10 -8.2 0 0 0 0 1 5
2041 2 10 -8 0 0 0 0 1 5
1992 2 10.2 -8.2 0 0 0 0 1 5
2042 2 10.2 -8 0 0 0 0 1 5
1993 2 10.4 -8.2 0 0 0 0 1 5
2043 2 10.4 -8 0 0 0 0 1 5
1994 2 10.6 -8.2 0 0 0 0 1 5
2044 2 10.6 -8 0 0 0 0 1 5
1995 2 10.8 -8.2 0 0 0 0 1 5
2045 2 10.8 -8 0 0 0 0 1 5
2051 2 2 -7.8 0 0 0 0 1 5
2101 2 2 -7.6 0 0 0 0 1 5
2052 2 2.2 -7.8 0 0 0 0 1 5
2053 2 2.4 -7.8 0 0 0 0 1 5
2102 2 2.2 -7.6 0 0 0 0 1 5
2103 2 2.4 -7.6 0 0 0 0 1 5
2054 2 2.6 -7.8 0 0 0 0 1 5
2055 2 2.8 -7.8 0 0 0 0 1 5
2104 2 2.6 -7.6 0 0 0 0 1 5
2105 2 2.8 -7.6 0 0 0 0 1 5
2056 2 3 -7.8 0 0 0 0 1 5
2057 2 3.2 -7.8 0 0 0 0 1 5
2106 2 3 -7.6 0 0 0 0 1 5
2107 2 3.2 -7.6 0 0 0 0 1 5
2058 2 3.4 -7.8 0 0 0 0 1 5
2059 2 3.6 -7.8 0 0 0 0 1 5
2108 2 3.4 -7.6 0 0 0 0 1 5
2109 2 3.6 -7.6 0 0 0 0 1 5
2060 2 3.8 -7.8 0 0 0 0 1 5
2110 2 3.8 -7.6 0 0 0 0 1 5
2061 2 4 -7.8 0 0 0 0 1 5
2111 2 4 -7.6 0 0 0 0 1 5
2062 2 4.2 -7.8 0 0 0 0 1 5
2112 2 4.2 -7.6 0 0 0 0 1 5
2063 2 4.4 -7.8 0 0 0 0 1 5
2064 2 4.6 -7.8 0 0 0 0 1 5
2113 2 4.4 -7.6 0 0 0 0 1 5
2114 2 4.6 -7.6 0 0 0 0 1 5
2065 2 4.8 -7.8 0 0 0 0 1 5
2066 2 5 -7.8 0 0 0 0 1 5
2115 2 4.8 -7.6 0 0 0 0 1 5
2116 2 5 -7.6 0 0 0 0 1 5
2067 2 5.2 -7.8 0 0 0 0 1 5
2068 2 5.4 -7.8 0 0 0 0 1 5
2117 2 5.2 -7.6 0 0 0 0 1 5
2118 2 5.4 -7.6 0 0 0 0 1 5
2069 2 5.6 -7.8 0 0 0 0 1 5
2070 2 5.8 -7.8 0 0 0 0 1 5
2119 2 5.6 -7.6 0 0 0 0 1 5
2120 2 5.8 -7.6 0 0 0 0 1 5
2071 2 6 -7.8 0 0 0 0 1 5
2072 2 6.2 -7.8 0 0 0 0 1 5
2121 2 6 -7.6 0 0 0 0 1 5
2122 2 6.2 -7.6 0 0 0 0 1 5
2073 2 6.4 -7.8 0 0 0 0 1 5
2074 2 6.6 -7.8 0 0 0 0 1 5
2123 2 6.4 -7.6 0 0 0 0 1 5
2124 2 6.6 -7.6 0 0 0 0 1 5
2075 2 6.8 -7.8 0 0 0 0 1 5
2076 2 7 -7.8 0 0 0 0 1 5
2125 2 6.8 -7.6 0 0 0 0 1 5
2126 2 7 -7.6 0 0 0 0 1 5
2077 2 7.2 -7.8 0 0 0 0 1 5
2127 2 7.2 -7.6 0 0 0 0 1 5
2078 2 7.4 -7.8 0 0 0 0 1 5
2079 2 7.6 -7.8 0 0 0 0 1 5
2128 2 7.4 -7.6 0 0 0 0 1 5
2129 2 7.6 -7.6 0 0 0 0 1 5
2080 2 7.8 -7.8 0 0 0 0 1 5
2081 2 8 -7.8 0 0 0 0 1 5
2130 2 7.8 -7.6 0 0 0 0 1 5
2131 2 8 -7.6 0 0 0 0 1 5
2082 2 8.2 -7.8 0 0 0 0 1 5
2083 2 8.4 -7.8 0 0 0 0 1 5
2132 2 8.2 -7.6 0 0 0 0 1 5
2133 2 8.4 -7.6 0 0 0 0 1 5
2084 2 8.6 -7.8 0 0 0 0 1 5
2085 2 8.8 -7.8 0 0 0 0 1 5
2134 2 8.6 -7.6 0 0 0 0 1 5
2135 2 8.8 -7.6 0 0 0 0 1 5
2086 2 9 -7.8 0 0 0 0 1 5
2087 2 9.2 -7.8 0 0 0 0 1 5
2136 2 9 -7.6 0 0 0 0 1 5
2137 2 9.2 -7.6 0 0 0 0 1 5
2088 2 9.4 -7.8 0 0 0 0 1 5
2089 2 9.6 -7.8 0 0 0 0 1 5
2138 2 9.4 -7.6 0 0 0 0 1 5
2139 2 9.6 -7.6 0 0 0 0 1 5
2090 2 9.8 -7.8 0 0 0 0 1 5
2140 2 9.8 -7.6 0 0 0 0 1 5
2091 2 10 -7.8 0 0 0 0 1 5
2141 2 10 -7.6 0 0 0 0 1 5
2092 2 10.2 -7.8 0 0 0 0 1 5
2142 2 10.2 -7.6 0 0 0 0 1 5
2093 2 10.4 -7.8 0 0 0 0 1 5
2143 2 10.4 -7.6 0 0 0 0 1 5
2094 2 10.6 -7.8 0 0 0 0 1 5
2144 2 10.6 -7.6 0 0 0 0 1 5
2095 2 10.8 -7.8 0 0 0 0 1 5
2145 2 10.8 -7.6 0 0 0 0 1 5
2151 2 2 -7.4 0 0 0 0 1.00739 5
2201 2 2 -7.2 0 0 0 0 1.00172 5
2152 2 2.2 -7.4 0 0 0 0 0.998766 5
2153 2 2.4 -7.4 0 0 0 0 0.998357 5
2202 2 2.2 -7.2 0 0 0 0 1.00065 5
2203 2 2.4 -7.2 0 0 0 0 0.998062 5
2154 2 2.6 -7.4 0 0 0 0 1.00659 5
2155 2 2.8 -7.4 0 0 0 0 0.99803 5
2204 2 2.6 -7.2 0 0 0 0 1.00063 5
2205 2 2.8 -7.2 0 0 0 0 0.99954 5
2156 2 3 -7.4 0 0 0 0 1.00022 5
2157 2 3.2 -7.4 0 0 0 0 0.997758 5
2206 2 3 -7.2 0 0 0 0 0.999317 5
2207 2 3.2 -7.2 0 0 0 0 0.999735 5
2158 2 3.4 -7.4 0 0 0 0 1.00778 5
2159 2 3.6 -7.4 0 0 0 0 0.998008 5
2208 2 3.4 -7.2 0 0 0 0 1.00165 5
2209 2 3.6 -7.2 0 0 0 0 1.00081 5
2160 2 3.8 -7.4 0 0 0 0 0.998926 5
2210 2 3.8 -7.2 0 0 0 0 1.0007 5
2161 2 4 -7.4 0 0 0 0 0.99564 5
2211 2 4 -7.2 0 0 0 0 1.00099 5
2162 2 4.2 -7.4 0 0 0 0 1.01189 5
2212 2 4.2 -7.2 0 0 0 0 1.00682 5
2163 2 4.4 -7.4 0 0 0 0 1.00793 5
2164 2 4.6 -7.4 0 0 0 0 1.00583 5
2213 2 4.4 -7.2 0 0 0 0 1.009 5
2214 2 4.6 -7.2 0 0 0 0 1.00594 5
2165 2 4.8 -7.4 0 0 0 0 1.00384 5
2166 2 5 -7.4 0 0 0 0 1.00354 5
2215 2 4.8 -7.2 0 0 0 0 1.00403 5
2216 2 5 -7.2 0 0 0 0 1.00374 5
2167 2 5.2 -7.4 0 0 0 0 1.00356 5
2168 2 5.4 -7.4 0 0 0 0 1.00343 5
2217 2 5.2 -7.2 0 0 0 0 1.00382 5
2218 2 5.4 -7.2 0 0 0 0 1.00369 5
2169 2 5.6 -7.4 0 0 0 0 1.0033 5
2170 2 5.8 -7.4 0 0 0 0 1.00343 5
2219 2 5.6 -7.2 0 0 0 0 1.00354 5
2220 2 5.8 -7.2 0 0 0 0 1.00356 5
2171 2 6 -7.4 0 0 0 0 1.00341 5
2172 2 6.2 -7.4 0 0 0 0 1.00347 5
2221 2 6 -7.2 0 0 0 0 1.00353 5
2222 2 6.2 -7.2 0 0 0 0 1.00358 5
2173 2 6.4 -7.4 0 0 0 0 1.00356 5
2174 2 6.6 -7.4 0 0 0 0 1.00369 5
2223 2 6.4 -7.2 0 0 0 0 1.00366 5
2224 2 6.6 -7.2 0 0 0 0 1.00378 5
2175 2 6.8 -7.4 0 0 0 0 1.0038 5
2176 2 7 -7.4 0 0 0 0 1.00381 5
2225 2 6.8 -7.2 0 0 0 0 1.00386 5
2226 2 7 -7.2 0 0 0 0 1.00389 5
2177 2 7.2 -7.4 0 0 0 0 1.00403 5
2227 2 7.2 -7.2 0 0 0 0 1.00405 5
2178 2 7.4 -7.4 0 0 0 0 1.00417 5
2179 2 7.6 -7.4 0 0 0 0 1.00424 5
2228 2 7.4 -7.2 0 0 0 0 1.00422 5
2229 2 7.6 -7.2 0 0 0 0 1.00431 5
2180 2 7.8 -7.4 0 0 0 0 1.00439 5
2181 2 8 -7.4 0 0 0 0 1.00451 5
2230 2 7.8 -7.2 0 0 0 0 1.00443 5
2231 2 8 -7.2 0 0 0 0 1.00456 5
2182 2 8.2 -7.4 0 0 0 0 1.00465 5
2183 2 8.4 -7.4 0 0 0 0 1.00479 5
2232 2 8.2 -7.2 0 0 0 0 1.00469 5
2233 2 8.4 -7.2 0 0 0 0 1.00483 5
2184 2 8.6 -7.4 0 0 0 0 1.0049 5
2185 2 8.8 -7.4 0 0 0 0 1.00493 5
2234 2 8.6 -7.2 0 0 0 0 1.00493 5
2235 2 8.8 -7.2 0 0 0 0 1.00499 5
2186 2 9 -7.4 0 0 0 0 1.00505 5
2187 2 9.2 -7.4 0 0 0 0 1.00516 5
2236 2 9 -7.2 0 0 0 0 1.00508 5
2237 2 9.2 -7.2 0 0 0 0 1.00516 5
2188 2 9.4 -7.4 0 0 0 0 1.00513 5
2189 2 9.6 -7.4 0 0 0 0 1.00514 5
2238 2 9.4 -7.2 0 0 0 0 1.00517 5
2239 2 9.6 -7.2 0 0 0 0 1.00519 5
2190 2 9.8 -7.4 0 0 0 0 1.00519 5
2240 2 9.8 -7.2 0 0 0 0 1.00524 5
2191 2 10 -7.4 0 0 0 0 1.00527 5
2241 2 10 -7.2 0 0 0 0 1.00531 5
2192 2 10.2 -7.4 0 0 0 0 1.00526 5
2242 2 10.2 -7.2 0 0 0 0 1.00532 5
2193 2 10.4 -7.4 0 0 0 0 1.00536 5
2243 2 10.4 -7.2 0 0 0 0 1.0054 5
2194 2 10.6 -7.4 0 0 0 0 1.00533 5
2244 2 10.6 -7.2 0 0 0 0 1.00538 5
2195 2 10.8 -7.4 0 0 0 0 1.00539 5
2245 2 10.8 -7.2 0 0 0 0 1.00542 5
10163 1 0.97653 -6.76052 0.02 0 0 0 1 2
10164 1 1.18708 -6.75858 0.02 0 -7.87946e-18 -1.0775e-17 1 2
10165 1 1.39447 -6.74963 0.02 0 -6.84439e-07 -4.14752e-07 1 2
10166 1 1.5891 -6.73676 0.02 0 -0.000153406 -5.12584e-05 1 2
10167 1 1.78329 -6.75958 0.02 0 -0.00226723 -0.000562044 1 2
10168 1 1.97334 -6.72901 0.02 0 -0.00304219 -0.000558905 1 2
2251 2 2 -7 0 0 0 0 1.00152 5
10169 1 2.17664 -6.76094 0.02 0 -0.0035125 -0.00058045 1 2
10170 1 2.3761 -6.75283 0.02 0 -0.00299603 -0.000513182 1 2
2252 2 2.2 -7 0 0 0 0 1.00033 5
2253 2 2.4 -7 0 0 0 0 0.998965 5
10171 1 2.57018 -6.73177 0.02 0 -0.002418 -0.000489523 1 2
10172 1 2.76696 -6.75891 0.02 0 -0.00321277 -0.000499561 1 2
3102 1 2.96607 -6.73426 0.02 0 -0.00240242 -0.000446723 1 2
3103 1 3.16006 -6.74554 0.02 0 -0.00297169 -0.000443946 1 2
2254 2 2.6 -7 0 0 0 0 1.00006 5
2255 2 2.8 -7 0 0 0 0 0.999801 5
3104 1 3.35411 -6.73088 0.02 0 -0.0025387 -0.000384286 1 2
3105 1 3.55695 -6.7611 0.02 0 -0.00298956 -0.000366098 1 2
2256 2 3 -7 0 0 0 0 0.999651 5
2257 2 3.2 -7 0 0 0 0 0.999888 5
3106 1 3.77505 -6.75596 0.02 0 -0.00362748 -0.000433913 1 2
3107 1 3.9841 -6.75919 0.02 0 -0.00695099 -0.000359579 1 2
2258 2 3.4 -7 0 0 0 0 1.00071 5
2259 2 3.6 -7 0 0 0 0 1.00081 5
3108 1 4.09865 -6.71076 0.0135329 0.00227504 8.12835e-06 1.84085e-06 1.0115 0
2260 2 3.8 -7 0 0 0 0 1.00149 5
3109 1 4.23564 -6.75911 0.00949083 0.000677485 1.1026e-05 -2.83057e-08 1.01422 0
3110 1 4.37103 -6.61452 0.0136048 0.00267075 7.68247e-06 3.75227e-07 1.00933 0
2261 2 4 -7 0 0 0 0 1.00264 5
2262 2 4.2 -7 0 0 0 0 1.0069 5
3111 1 4.44736 -6.76103 0.00804798 0.000843333 5.16717e-06 -9.67706e-07 1.0087 0
3112 1 4.57981 -6.62205 0.0119122 0.00209909 3.6009e-06 -8.95365e-07 1.00595 0
2263 2 4.4 -7 0 0 0 0 1.00898 5
2264 2 4.6 -7 0 0 0 0 1.00621 5
3113 1 4.69776 -6.71637 0.00777448 0.00103389 4.04857e-06 -3.97985e-07 1.00516 0
3114 1 4.85084 -6.69973 0.00725923 0.000822286 1.81331e-06 -1.28263e-07 1.00477 0
2265 2 4.8 -7 0 0 0 0 1.00437 5
2266 2 5 -7 0 0 0 0 1.00405 5
3115 1 5.00974 -6.72027 0.00572465 0.000521281 -4.28751e-08 -3.87699e-07 1.00468 0
3116 1 5.18612 -6.74763 0.00452312 0.000327893 -1.48738e-06 -5.35605e-07 1.00463 0
2267 2 5.2 -7 0 0 0 0 1.0041 5
2268 2 5.4 -7 0 0 0 0 1.00394 5
3117 1 5.38827 -6.72822 0.00443821 0.000338008 -3.04515e-06 -5.38994e-07 1.00428 0
3118 1 5.57667 -6.72509 0.00408933 0.000300499 -3.98413e-06 -4.72899e-07 1.00407 0
2269 2 5.6 -7 0 0 0 0 1.00377 5
2270 2 5.8 -7 0 0 0 0 1.00373 5
3119 1 5.76177 -6.73257 0.0036196 0.000264422 -4.5878e-06 -4.29796e-07 1.00402 0
3120 1 5.94454 -6.69724 0.00400824 0.000311446 -6.60759e-06 -4.37619e-07 1.00384 0
2271 2 6 -7 0 0 0 0 1.00369 5
2272 2 6.2 -7 0 0 0 0 1.00372 5
3121 1 6.11244 -6.72847 0.00321636 0.000221531 -6.14986e-06 -4.27697e-07 1.00395 0
3122 1 6.29432 -6.71793 0.00317555 0.00022405 -7.29135e-06 -4.26016e-07 1.00389 0
2273 2 6.4 -7 0 0 0 0 1.00378 5
2274 2 6.6 -7 0 0 0 0 1.00387 5
3123 1 6.47798 -6.74471 0.00264078 0.000176569 -6.96364e-06 -3.77646e-07 1.00397 0
3124 1 6.68026 -6.74633 0.00249527 0.000179921 -7.6003e-06 -3.40625e-07 1.00403 0
2275 2 6.8 -7 0 0 0 0 1.00394 5
2276 2 7 -7 0 0 0 0 1.00398 5
3125 1 6.87874 -6.72919 0.00263326 0.000191293 -9.28931e-06 -2.00964e-07 1.00405 0
3126 1 7.0679 -6.71735 0.00270209 0.000192497 -1.08488e-05 4.69831e-08 1.00406 0
3127 1 7.25028 -6.74962 0.0022224 0.000160197 -1.01552e-05 2.55939e-07 1.00425 0
2277 2 7.2 -7 0 0 0 0 1.00411 5
2278 2 7.4 -7 0 0 0 0 1.00427 5
2279 2 7.6 -7 0 0 0 0 1.00437 5
3128 1 7.45014 -6.73142 0.00241142 0.000172064 -1.21207e-05 6.26005e-07 1.00436 0
3129 1 7.64452 -6.72808 0.00241275 0.000160829 -1.32243e-05 1.0516e-06 1.00444 0
2280 2 7.8 -7 0 0 0 0 1.00448 5
2281 2 8 -7 0 0 0 0 1.00461 5
3130 1 7.83514 -6.73635 0.00227672 0.000141788 -1.36005e-05 1.47095e-06 1.00457 0
3131 1 8.0311 -6.74126 0.002204 0.000126013 -1.38759e-05 1.8705e-06 1.00469 0
2282 2 8.2 -7 0 0 0 0 1.00474 5
2283 2 8.4 -7 0 0 0 0 1.00486 5
3132 1 8.23628 -6.74617 0.00214877 0.000115246 -1.39204e-05 2.18766e-06 1.00481 0
3133 1 8.44497 -6.74424 0.0021698 0.000107528 -1.38571e-05 2.37015e-06 1.00494 0
2284 2 8.6 -7 0 0 0 0 1.00497 5
2285 2 8.8 -7 0 0 0 0 1.00503 5
3134 1 8.65211 -6.73946 0.00222541 9.609e-05 -1.36381e-05 2.44432e-06 1.00504 0
3135 1 8.85358 -6.73503 0.00226715 8.04269e-05 -1.31165e-05 2.42936e-06 1.00508 0
2286 2 9 -7 0 0 0 0 1.00512 5
2287 2 9.2 -7 0 0 0 0 1.00519 5
3136 1 9.05069 -6.75843 0.00199811 6.01651e-05 -1.10872e-05 2.03887e-06 1.0052 0
3137 1 9.25464 -6.72897 0.00235311 5.79273e-05 -1.14434e-05 1.93877e-06 1.00523 0
3138 1 9.44699 -6.74585 0.00213538 3.2123e-05 -9.66477e-06 1.5525e-06 1.00531 0
2288 2 9.4 -7 0 0 0 0 1.00522 5
2289 2 9.6 -7 0 0 0 0 1.00525 5
3139 1 9.64836 -6.73234 0.00228324 2.13119e-05 -9.25775e-06 1.32087e-06 1.0053 0
2290 2 9.8 -7 0 0 0 0 1.0053 5
3140 1 9.84702 -6.76831 0.00189324 -1.27471e-06 -7.32739e-06 9.33351e-07 1.0054 0
3190 1 9.92092 -6.58729 0.00430778 0.000119999 -1.3776e-05 1.4772e-06 1.00528 0
2291 2 10 -7 0 0 0 0 1.00536 5
3141 1 10.0682 -6.74734 0.0021229 -1.04425e-06 -7.43901e-06 7.88878e-07 1.00543 0
2292 2 10.2 -7 0 0 0 0 1.00538 5
3142 1 10.2808 -6.76042 0.00197701 -4.05701e-06 -6.71686e-06 6.37122e-07 1.00546 0
2293 2 10.4 -7 0 0 0 0 1.00544 5
3143 1 10.4925 -6.73125 0.00233223 -1.44805e-06 -7.57742e-06 7.40479e-07 1.0055 0
2294 2 10.6 -7 0 0 0 0 1.00543 5
3144 1 10.6871 -6.72753 0.00237068 -1.42277e-05 -7.70099e-06 8.8592e-07 1.0055 0
2295 2 10.8 -7 0 0 0 0 1.00547 5
3145 1 10.876 -6.75393 0.00206485 -1.42911e-05 -6.93599e-06 9.23049e-07 1.00557 0
10173 1 0.975757 -6.56911 0.02 0 0 0 1 2
10174 1 0.989591 -6.3746 0.02 0 0 0 1 2
10175 1 1.00256 -6.17139 0.02 0 0 0 1 2
10176 1 1.1708 -6.5716 0.02 0 0 0 1 2
10178 1 1.17644 -6.37716 0.02 0 0 0 1 2
10180 1 1.19557 -6.17536 0.02 0 0 0 1 2
10177 1 1.37312 -6.56729 0.02 0 -9.44936e-12 -4.20857e-12 1 2
10179 1 1.36108 -6.37726 0.02 0 0 0 1 2
10181 1 1.39136 -6.18082 0.02 0 0 0 1 2
10182 1 1.58264 -6.55634 0.02 0 -8.75683e-07 -1.23644e-08 1 2
10184 1 1.54801 -6.37042 0.02 0 1.07634e-09 2.67575e-09 1 2
10186 1 1.58848 -6.17125 0.02 0 3.77915e-11 2.89223e-09 1 2
10183 1 1.77742 -6.55852 0.02 0 -3.37869e-05 2.08152e-05 1 2
10185 1 1.74146 -6.3643 0.02 0 2.53484e-06 6.10872e-06 1 2
10187 1 1.78335 -6.17089 0.02 0 2.582e-08 2.27777e-07 1 2
10188 1 1.96326 -6.54336 0.02 0 9.04557e-05 0.000319079 1 2
10190 1 1.94006 -6.35107 0.02 0 2.37533e-05 5.07224e-05 1 2
10189 1 2.14581 -6.5605 0.02 0 0.000206381 0.000484187 1 2
10191 1 2.13515 -6.35639 0.02 0 6.88999e-05 0.000117158 1 2
10192 1 2.33199 -6.56671 0.02 0 0.000176966 0.000549875 1 2
10193 1 2.32739 -6.37535 0.02 0 0.000104002 0.000143676 1 2
10196 1 2.36804 -6.18064 0.02 0 6.00094e-06 1.36861e-05 1 2
3202 1 2.92079 -6.36917 0.02 0 9.13834e-05 0.000124928 1 2
10194 1 2.53151 -6.55481 0.02 0 0.00023085 0.0005018 1 2
10195 1 2.52276 -6.36971 0.02 0 9.60424e-05 0.000133878 1 2
10197 1 2.56851 -6.18175 0.02 0 5.36782e-06 1.2208e-05 1 2
10198 1 2.72107 -6.36932 0.02 0 9.5919e-05 0.00014403 1 2
10199 1 2.76868 -6.17601 0.02 0 4.59871e-06 1.08317e-05 1 2
10200 1 2.7347 -6.56327 0.02 0 0.00022176 0.000489961 1 2
3152 1 2.93085 -6.55533 0.02 0 0.000201162 0.000455416 1 2
3153 1 3.13706 -6.55766 0.02 0 0.000210892 0.000450156 1 2
3203 1 3.12143 -6.36811 0.02 0 9.2539e-05 0.000135594 1 2
3252 1 2.96601 -6.17777 0.02 0 5.13365e-06 1.11311e-05 1 2
3253 1 3.16415 -6.17528 0.02 0 4.89297e-06 1.00799e-05 1 2
3204 1 3.32241 -6.37182 0.02 0 9.68799e-05 0.000133347 1 2
3154 1 3.34576 -6.55239 0.02 0 0.000197836 0.000400971 1 2
3155 1 3.5546 -6.57675 0.02 0 0.000133104 0.000365844 1 2
3205 1 3.5338 -6.39378 0.02 0 0.000122309 0.000163409 1 2
3254 1 3.36802 -6.19145 0.02 0 6.19866e-06 1.23778e-05 1 2
3255 1 3.56781 -6.20716 0.02 0 2.0645e-06 1.41436e-05 1 2
3156 1 3.75377 -6.57331 0.02 0 -0.000255198 0.000421762 1 2
3206 1 3.75287 -6.39507 0.02 0 -0.000161779 0.000169593 1 2
3256 1 3.76595 -6.21147 0.02 0 -0.000293498 5.02895e-05 1 2
3157 1 3.96048 -6.58171 0.02 0 -0.00185961 0.000726246 1 2
3207 1 3.98282 -6.41182 0.02 0 -0.00166179 0.000907901 1 2
3257 1 3.96384 -6.23254 0.02 0 -0.00146208 0.000590132 1 2
3258 1 4.11868 -6.17709 0.017651 0.00272723 1.07336e-05 -1.0396e-06 1.00807 0
3158 1 4.11954 -6.54598 0.0164337 0.00319885 1.2154e-05 -1.06163e-06 1.01165 0
3159 1 4.27328 -6.48426 0.016436 0.00415593 9.83452e-06 -1.00352e-06 1.01094 0
3208 1 4.13341 -6.35416 0.017214 0.00323701 1.0321e-05 -1.7205e-06 1.00982 0
3209 1 4.30888 -6.2935 0.017765 0.00475951 7.07108e-06 -1.12807e-06 1.00896 0
3259 1 4.29206 -6.11289 0.0182622 0.00465908 7.01733e-06 -1.0159e-06 1.00783 0
3210 1 4.48121 -6.22872 0.0184784 0.00511597 1.29083e-06 -2.0406e-07 1.00671 0
3160 1 4.44858 -6.42943 0.0168542 0.0041734 3.80161e-06 -1.18497e-07 1.00778 0
3161 1 4.61029 -6.44886 0.0156246 0.00352589 1.47977e-06 -2.57446e-07 1.00627 0
3211 1 4.65095 -6.2255 0.0179994 0.00486166 -1.31565e-06 -2.20131e-07 1.00588 0
3162 1 4.76259 -6.38033 0.0156277 0.00358445 -1.35885e-06 -4.67263e-07 1.00576 0
3212 1 4.82043 -6.17177 0.0176748 0.0047204 -4.27201e-06 -1.80679e-07 1.00557 0
3163 1 4.86054 -6.50456 0.0125494 0.00229927 -3.02018e-07 -7.4529e-07 1.00522 0
3164 1 5.01987 -6.49737 0.0115812 0.00195622 -2.82051e-06 -4.50763e-07 1.00496 0
3213 1 4.96267 -6.26302 0.0159111 0.00372375 -5.3641e-06 -2.0689e-07 1.0054 0
3214 1 5.12123 -6.29771 0.0145028 0.00302521 -7.54296e-06 -2.13061e-07 1.00505 0
3165 1 5.17408 -6.52496 0.0100667 0.00149935 -4.4983e-06 -6.17975e-07 1.00464 0
3215 1 5.28381 -6.28472 0.0138393 0.00272457 -1.04076e-05 -4.02305e-08 1.00475 0
3166 1 5.33147 -6.55256 0.00869605 0.00115867 -5.94755e-06 -7.72787e-07 1.00434 0
3216 1 5.43244 -6.35833 0.011956 0.00203385 -1.13775e-05 -3.37294e-07 1.00449 0
3266 1 5.49151 -6.14442 0.0148128 0.00306555 -1.59241e-05 5.50339e-07 1.00447 0
3167 1 5.51793 -6.53148 0.00841965 0.00111527 -8.43364e-06 -6.73677e-07 1.00415 0
3217 1 5.61073 -6.31009 0.0119841 0.00202998 -1.48423e-05 -7.99992e-08 1.00433 0
3168 1 5.69825 -6.53067 0.00784068 0.000989663 -1.02169e-05 -5.95249e-07 1.00402 0
3218 1 5.7855 -6.32365 0.011139 0.00174699 -1.68194e-05 -6.66989e-08 1.00421 0
3169 1 5.87989 -6.51576 0.00761073 0.000929411 -1.23222e-05 -5.06867e-07 1.00396 0
3219 1 5.96681 -6.29916 0.0109501 0.00165983 -1.95744e-05 8.49081e-08 1.00414 0
3170 1 6.06373 -6.49437 0.00754809 0.000920334 -1.45864e-05 -4.37159e-07 1.00395 0
3220 1 6.14437 -6.27585 0.0108206 0.0015861 -2.21561e-05 2.62031e-07 1.0041 0
3171 1 6.23412 -6.52187 0.00672475 0.000763008 -1.49281e-05 -4.97577e-07 1.0039 0
3172 1 6.41289 -6.52546 0.00636816 0.000701149 -1.6081e-05 -4.60574e-07 1.00389 0
3221 1 6.31213 -6.30913 0.00994063 0.00134373 -2.29445e-05 1.70121e-07 1.00407 0