ITEM: TIMESTEP
32000
ITEM: NUMBER OF ATOMS
11387
ITEM: BOX BOUNDS ff ff pp
0.0000000000000000e+00 2.2000000000000000e+01
-1.0000000000000000e+01 1.0000000000000000e+01
-2.0000000000000000e-02 2.0000000000000000e-02
ITEM: ATOMS id type x y vx vy fx fy c_den c_phase
1501 2 2 -10 0 0 0 0 1 5
1551 2 2 -9.8 0 0 0 0 1 5
1601 2 2 -9.6 0 0 0 0 1 5
1502 2 2.2 -10 0 0 0 0 1 5
1503 2 2.4 -10 0 0 0 0 1 5
1552 2 2.2 -9.8 0 0 0 0 1 5
1553 2 2.4 -9.8 0 0 0 0 1 5
1602 2 2.2 -9.6 0 0 0 0 1 5
1603 2 2.4 -9.6 0 0 0 0 1 5
1504 2 2.6 -10 0 0 0 0 1 5
1505 2 2.8 -10 0 0 0 0 1 5
1554 2 2.6 -9.8 0 0 0 0 1 5
1555 2 2.8 -9.8 0 0 0 0 1 5
1604 2 2.6 -9.6 0 0 0 0 1 5
1605 2 2.8 -9.6 0 0 0 0 1 5
1506 2 3 -10 0 0 0 0 1 5
1507 2 3.2 -10 0 0 0 0 1 5
1556 2 3 -9.8 0 0 0 0 1 5
1557 2 3.2 -9.8 0 0 0 0 1 5
1606 2 3 -9.6 0 0 0 0 1 5
1607 2 3.2 -9.6 0 0 0 0 1 5
1508 2 3.4 -10 0 0 0 0 1 5
1509 2 3.6 -10 0 0 0 0 1 5
1558 2 3.4 -9.8 0 0 0 0 1 5
1559 2 3.6 -9.8 0 0 0 0 1 5
1608 2 3.4 -9.6 0 0 0 0 1 5
1609 2 3.6 -9.6 0 0 0 0 1 5
1510 2 3.8 -10 0 0 0 0 1 5
1560 2 3.8 -9.8 0 0 0 0 1 5
1610 2 3.8 -9.6 0 0 0 0 1 5
1511 2 4 -10 0 0 0 0 1 5
1561 2 4 -9.8 0 0 0 0 1 5
1611 2 4 -9.6 0 0 0 0 1 5
1512 2 4.2 -10 0 0 0 0 1 5
1562 2 4.2 -9.8 0 0 0 0 1 5
1612 2 4.2 -9.6 0 0 0 0 1 5
1513 2 4.4 -10 0 0 0 0 1 5
1514 2 4.6 -10 0 0 0 0 1 5
1563 2 4.4 -9.8 0 0 0 0 1 5
1564 2 4.6 -9.8 0 0 0 0 1 5
1613 2 4.4 -9.6 0 0 0 0 1 5
1614 2 4.6 -9.6 0 0 0 0 1 5
1515 2 4.8 -10 0 0 0 0 1 5
1516 2 5 -10 0 0 0 0 1 5
1565 2 4.8 -9.8 0 0 0 0 1 5
1566 2 5 -9.8 0 0 0 0 1 5
1615 2 4.8 -9.6 0 0 0 0 1 5
1616 2 5 -9.6 0 0 0 0 1 5
1517 2 5.2 -10 0 0 0 0 1 5
1518 2 5.4 -10 0 0 0 0 1 5
1567 2 5.2 -9.8 0 0 0 0 1 5
1568 2 5.4 -9.8 0 0 0 0 1 5
1617 2 5.2 -9.6 0 0 0 0 1 5
1618 2 5.4 -9.6 0 0 0 0 1 5
1519 2 5.6 -10 0 0 0 0 1 5
1520 2 5.8 -10 0 0 0 0 1 5
1569 2 5.6 -9.8 0 0 0 0 1 5
1570 2 5.8 -9.8 0 0 0 0 1 5
1619 2 5.6 -9.6 0 0 0 0 1 5
1620 2 5.8 -9.6 0 0 0 0 1 5
1521 2 6 -10 0 0 0 0 1 5
1522 2 6.2 -10 0 0 0 0 1 5
1571 2 6 -9.8 0 0 0 0 1 5
1572 2 6.2 -9.8 0 0 0 0 1 5
1621 2 6 -9.6 0 0 0 0 1 5
1622 2 6.2 -9.6 0 0 0 0 1 5
1523 2 6.4 -10 0 0 0 0 1 5
1524 2 6.6 -10 0 0 0 0 1 5
1573 2 6.4 -9.8 0 0 0 0 1 5
1574 2 6.6 -9.8 0 0 0 0 1 5
1623 2 6.4 -9.6 0 0 0 0 1 5
1624 2 6.6 -9.6 0 0 0 0 1 5
1525 2 6.8 -10 0 0 0 0 1 5
1526 2 7 -10 0 0 0 0 1 5
1575 2 6.8 -9.8 0 0 0 0 1 5
1576 2 7 -9.8 0 0 0 0 1 5
1625 2 6.8 -9.6 0 0 0 0 1 5
1626 2 7 -9.6 0 0 0 0 1 5
1527 2 7.2 -10 0 0 0 0 1 5
1577 2 7.2 -9.8 0 0 0 0 1 5
1627 2 7.2 -9.6 0 0 0 0 1 5
1528 2 7.4 -10 0 0 0 0 1 5
1529 2 7.6 -10 0 0 0 0 1 5
1578 2 7.4 -9.8 0 0 0 0 1 5
1579 2 7.6 -9.8 0 0 0 0 1 5
1628 2 7.4 -9.6 0 0 0 0 1 5
1629 2 7.6 -9.6 0 0 0 0 1 5
1530 2 7.8 -10 0 0 0 0 1 5
1531 2 8 -10 0 0 0 0 1 5
1580 2 7.8 -9.8 0 0 0 0 1 5
1581 2 8 -9.8 0 0 0 0 1 5
1630 2 7.8 -9.6 0 0 0 0 1 5
1631 2 8 -9.6 0 0 0 0 1 5
1532 2 8.2 -10 0 0 0 0 1 5
1533 2 8.4 -10 0 0 0 0 1 5
1582 2 8.2 -9.8 0 0 0 0 1 5
1583 2 8.4 -9.8 0 0 0 0 1 5
1632 2 8.2 -9.6 0 0 0 0 1 5
1633 2 8.4 -9.6 0 0 0 0 1 5
1534 2 8.6 -10 0 0 0 0 1 5
1535 2 8.8 -10 0 0 0 0 1 5
1584 2 8.6 -9.8 0 0 0 0 1 5
1585 2 8.8 -9.8 0 0 0 0 1 5
1634 2 8.6 -9.6 0 0 0 0 1 5
1635 2 8.8 -9.6 0 0 0 0 1 5
1536 2 9 -10 0 0 0 0 1 5
1537 2 9.2 -10 0 0 0 0 1 5
1586 2 9 -9.8 0 0 0 0 1 5
1587 2 9.2 -9.8 0 0 0 0 1 5
1636 2 9 -9.6 0 0 0 0 1 5
1637 2 9.2 -9.6 0 0 0 0 1 5
1538 2 9.4 -10 0 0 0 0 1 5
1539 2 9.6 -10 0 0 0 0 1 5
1588 2 9.4 -9.8 0 0 0 0 1 5
1589 2 9.6 -9.8 0 0 0 0 1 5
1638 2 9.4 -9.6 0 0 0 0 1 5
1639 2 9.6 -9.6 0 0 0 0 1 5
1540 2 9.8 -10 0 0 0 0 1 5
1590 2 9.8 -9.8 0 0 0 0 1 5
1640 2 9.8 -9.6 0 0 0 0 1 5
1541 2 10 -10 0 0 0 0 1 5
1591 2 10 -9.8 0 0 0 0 1 5
1641 2 10 -9.6 0 0 0 0 1 5
1542 2 10.2 -10 0 0 0 0 1 5
1592 2 10.2 -9.8 0 0 0 0 1 5
1642 2 10.2 -9.6 0 0 0 0 1 5
1543 2 10.4 -10 0 0 0 0 1 5
1593 2 10.4 -9.8 0 0 0 0 1 5
1643 2 10.4 -9.6 0 0 0 0 1 5
1544 2 10.6 -10 0 0 0 0 1 5
1594 2 10.6 -9.8 0 0 0 0 1 5
1644 2 10.6 -9.6 0 0 0 0 1 5
1545 2 10.8 -10 0 0 0 0 1 5
1595 2 10.8 -9.8 0 0 0 0 1 5
1645 2 10.8 -9.6 0 0 0 0 1 5
1651 2 2 -9.4 0 0 0 0 1 5
1701 2 2 -9.2 0 0 0 0 1 5
1652 2 2.2 -9.4 0 0 0 0 1 5
1653 2 2.4 -9.4 0 0 0 0 1 5
1702 2 2.2 -9.2 0 0 0 0 1 5
1703 2 2.4 -9.2 0 0 0 0 1 5
1654 2 2.6 -9.4 0 0 0 0 1 5
1655 2 2.8 -9.4 0 0 0 0 1 5
1704 2 2.6 -9.2 0 0 0 0 1 5
1705 2 2.8 -9.2 0 0 0 0 1 5
1656 2 3 -9.4 0 0 0 0 1 5
1657 2 3.2 -9.4 0 0 0 0 1 5
1706 2 3 -9.2 0 0 0 0 1 5
1707 2 3.2 -9.2 0 0 0 0 1 5
1658 2 3.4 -9.4 0 0 0 0 1 5
1659 2 3.6 -9.4 0 0 0 0 1 5
1708 2 3.4 -9.2 0 0 0 0 1 5
1709 2 3.6 -9.2 0 0 0 0 1 5
1660 2 3.8 -9.4 0 0 0 0 1 5
1710 2 3.8 -9.2 0 0 0 0 1 5
1661 2 4 -9.4 0 0 0 0 1 5
1711 2 4 -9.2 0 0 0 0 1 5
1662 2 4.2 -9.4 0 0 0 0 1 5
1712 2 4.2 -9.2 0 0 0 0 1 5
1663 2 4.4 -9.4 0 0 0 0 1 5
1664 2 4.6 -9.4 0 0 0 0 1 5
1713 2 4.4 -9.2 0 0 0 0 1 5
1714 2 4.6 -9.2 0 0 0 0 1 5
1665 2 4.8 -9.4 0 0 0 0 1 5
1666 2 5 -9.4 0 0 0 0 1 5
1715 2 4.8 -9.2 0 0 0 0 1 5
1716 2 5 -9.2 0 0 0 0 1 5
1667 2 5.2 -9.4 0 0 0 0 1 5
1668 2 5.4 -9.4 0 0 0 0 1 5
1717 2 5.2 -9.2 0 0 0 0 1 5
1718 2 5.4 -9.2 0 0 0 0 1 5
1669 2 5.6 -9.4 0 0 0 0 1 5
1670 2 5.8 -9.4 0 0 0 0 1 5
1719 2 5.6 -9.2 0 0 0 0 1 5
1720 2 5.8 -9.2 0 0 0 0 1 5
1671 2 6 -9.4 0 0 0 0 1 5
1672 2 6.2 -9.4 0 0 0 0 1 5
1721 2 6 -9.2 0 0 0 0 1 5
1722 2 6.2 -9.2 0 0 0 0 1 5
1673 2 6.4 -9.4 0 0 0 0 1 5
1674 2 6.6 -9.4 0 0 0 0 1 5
1723 2 6.4 -9.2 0 0 0 0 1 5
1724 2 6.6 -9.2 0 0 0 0 1 5
1675 2 6.8 -9.4 0 0 0 0 1 5
1676 2 7 -9.4 0 0 0 0 1 5
1725 2 6.8 -9.2 0 0 0 0 1 5
1726 2 7 -9.2 0 0 0 0 1 5
1677 2 7.2 -9.4 0 0 0 0 1 5
1727 2 7.2 -9.2 0 0 0 0 1 5
1678 2 7.4 -9.4 0 0 0 0 1 5
1679 2 7.6 -9.4 0 0 0 0 1 5
1728 2 7.4 -9.2 0 0 0 0 1 5
1729 2 7.6 -9.2 0 0 0 0 1 5
1680 2 7.8 -9.4 0 0 0 0 1 5
1681 2 8 -9.4 0 0 0 0 1 5
1730 2 7.8 -9.2 0 0 0 0 1 5
1731 2 8 -9.2 0 0 0 0 1 5
1682 2 8.2 -9.4 0 0 0 0 1 5
1683 2 8.4 -9.4 0 0 0 0 1 5
1732 2 8.2 -9.2 0 0 0 0 1 5
1733 2 8.4 -9.2 0 0 0 0 1 5
1684 2 8.6 -9.4 0 0 0 0 1 5
1685 2 8.8 -9.4 0 0 0 0 1 5
1734 2 8.6 -9.2 0 0 0 0 1 5
1735 2 8.8 -9.2 0 0 0 0 1 5
1686 2 9 -9.4 0 0 0 0 1 5
1687 2 9.2 -9.4 0 0 0 0 1 5
1736 2 9 -9.2 0 0 0 0 1 5
1737 2 9.2 -9.2 0 0 0 0 1 5
1688 2 9.4 -9.4 0 0 0 0 1 5
1689 2 9.6 -9.4 0 0 0 0 1 5
1738 2 9.4 -9.2 0 0 0 0 1 5
1739 2 9.6 -9.2 0 0 0 0 1 5
1690 2 9.8 -9.4 0 0 0 0 1 5
1740 2 9.8 -9.2 0 0 0 0 1 5
1691 2 10 -9.4 0 0 0 0 1 5
1741 2 10 -9.2 0 0 0 0 1 5
1692 2 10.2 -9.4 0 0 0 0 1 5
1742 2 10.2 -9.2 0 0 0 0 1 5
1693 2 10.4 -9.4 0 0 0 0 1 5
1743 2 10.4 -9.2 0 0 0 0 1 5
1694 2 10.6 -9.4 0 0 0 0 1 5
1744 2 10.6 -9.2 0 0 0 0 1 5
1695 2 10.8 -9.4 0 0 0 0 1 5
1745 2 10.8 -9.2 0 0 0 0 1 5
1751 2 2 -9 0 0 0 0 1 5
1801 2 2 -8.8 0 0 0 0 1 5
1752 2 2.2 -9 0 0 0 0 1 5
1753 2 2.4 -9 0 0 0 0 1 5
1802 2 2.2 -8.8 0 0 0 0 1 5
1803 2 2.4 -8.8 0 0 0 0 1 5
1754 2 2.6 -9 0 0 0 0 1 5
1755 2 2.8 -9 0 0 0 0 1 5
1804 2 2.6 -8.8 0 0 0 0 1 5
1805 2 2.8 -8.8 0 0 0 0 1 5
1756 2 3 -9 0 0 0 0 1 5
1757 2 3.2 -9 0 0 0 0 1 5
1806 2 3 -8.8 0 0 0 0 1 5
1807 2 3.2 -8.8 0 0 0 0 1 5
1758 2 3.4 -9 0 0 0 0 1 5
1759 2 3.6 -9 0 0 0 0 1 5
1808 2 3.4 -8.8 0 0 0 0 1 5
1809 2 3.6 -8.8 0 0 0 0 1 5
1760 2 3.8 -9 0 0 0 0 1 5
1810 2 3.8 -8.8 0 0 0 0 1 5
1761 2 4 -9 0 0 0 0 1 5
1811 2 4 -8.8 0 0 0 0 1 5
1762 2 4.2 -9 0 0 0 0 1 5
1812 2 4.2 -8.8 0 0 0 0 1 5
1763 2 4.4 -9 0 0 0 0 1 5
1764 2 4.6 -9 0 0 0 0 1 5
1813 2 4.4 -8.8 0 0 0 0 1 5
1814 2 4.6 -8.8 0 0 0 0 1 5
1765 2 4.8 -9 0 0 0 0 1 5
1766 2 5 -9 0 0 0 0 1 5
1815 2 4.8 -8.8 0 0 0 0 1 5
1816 2 5 -8.8 0 0 0 0 1 5
1767 2 5.2 -9 0 0 0 0 1 5
1768 2 5.4 -9 0 0 0 0 1 5
1817 2 5.2 -8.8 0 0 0 0 1 5
1818 2 5.4 -8.8 0 0 0 0 1 5
1769 2 5.6 -9 0 0 0 0 1 5
1770 2 5.8 -9 0 0 0 0 1 5
1819 2 5.6 -8.8 0 0 0 0 1 5
1820 2 5.8 -8.8 0 0 0 0 1 5
1771 2 6 -9 0 0 0 0 1 5
1772 2 6.2 -9 0 0 0 0 1 5
1821 2 6 -8.8 0 0 0 0 1 5
1822 2 6.2 -8.8 0 0 0 0 1 5
1773 2 6.4 -9 0 0 0 0 1 5
1774 2 6.6 -9 0 0 0 0 1 5
1823 2 6.4 -8.8 0 0 0 0 1 5
1824 2 6.6 -8.8 0 0 0 0 1 5
1775 2 6.8 -9 0 0 0 0 1 5
1776 2 7 -9 0 0 0 0 1 5
1825 2 6.8 -8.8 0 0 0 0 1 5
1826 2 7 -8.8 0 0 0 0 1 5
1777 2 7.2 -9 0 0 0 0 1 5
1827 2 7.2 -8.8 0 0 0 0 1 5
1778 2 7.4 -9 0 0 0 0 1 5
1779 2 7.6 -9 0 0 0 0 1 5
1828 2 7.4 -8.8 0 0 0 0 1 5
1829 2 7.6 -8.8 0 0 0 0 1 5
1780 2 7.8 -9 0 0 0 0 1 5
1781 2 8 -9 0 0 0 0 1 5
1830 2 7.8 -8.8 0 0 0 0 1 5
1831 2 8 -8.8 0 0 0 0 1 5
1782 2 8.2 -9 0 0 0 0 1 5
1783 2 8.4 -9 0 0 0 0 1 5
1832 2 8.2 -8.8 0 0 0 0 1 5
1833 2 8.4 -8.8 0 0 0 0 1 5
1784 2 8.6 -9 0 0 0 0 1 5
1785 2 8.8 -9 0 0 0 0 1 5
1834 2 8.6 -8.8 0 0 0 0 1 5
1835 2 8.8 -8.8 0 0 0 0 1 5
1786 2 9 -9 0 0 0 0 1 5
1787 2 9.2 -9 0 0 0 0 1 5
1836 2 9 -8.8 0 0 0 0 1 5
1837 2 9.2 -8.8 0 0 0 0 1 5
1788 2 9.4 -9 0 0 0 0 1 5
1789 2 9.6 -9 0 0 0 0 1 5
1838 2 9.4 -8.8 0 0 0 0 1 5
1839 2 9.6 -8.8 0 0 0 0 1 5
1790 2 9.8 -9 0 0 0 0 1 5
1840 2 9.8 -8.8 0 0 0 0 1 5
1791 2 10 -9 0 0 0 0 1 5
1841 2 10 -8.8 0 0 0 0 1 5
1792 2 10.2 -9 0 0 0 0 1 5
1842 2 10.2 -8.8 0 0 0 0 1 5
1793 2 10.4 -9 0 0 0 0 1 5
1843 2 10.4 -8.8 0 0 0 0 1 5
1794 2 10.6 -9 0 0 0 0 1 5
1844 2 10.6 -8.8 0 0 0 0 1 5
1795 2 10.8 -9 0 0 0 0 1 5
1845 2 10.8 -8.8 0 0 0 0 1 5
1851 2 2 -8.6 0 0 0 0 1 5
1901 2 2 -8.4 0 0 0 0 1 5
1852 2 2.2 -8.6 0 0 0 0 1 5
1853 2 2.4 -8.6 0 0 0 0 1 5
1902 2 2.2 -8.4 0 0 0 0 1 5
1903 2 2.4 -8.4 0 0 0 0 1 5
1854 2 2.6 -8.6 0 0 0 0 1 5
1855 2 2.8 -8.6 0 0 0 0 1 5
1904 2 2.6 -8.4 0 0 0 0 1 5
1905 2 2.8 -8.4 0 0 0 0 1 5
1856 2 3 -8.6 0 0 0 0 1 5
1857 2 3.2 -8.6 0 0 0 0 1 5
1906 2 3 -8.4 0 0 0 0 1 5
1907 2 3.2 -8.4 0 0 0 0 1 5
1858 2 3.4 -8.6 0 0 0 0 1 5
1859 2 3.6 -8.6 0 0 0 0 1 5
1908 2 3.4 -8.4 0 0 0 0 1 5
1909 2 3.6 -8.4 0 0 0 0 1 5
1860 2 3.8 -8.6 0 0 0 0 1 5
1910 2 3.8 -8.4 0 0 0 0 1 5
1861 2 4 -8.6 0 0 0 0 1 5
1911 2 4 -8.4 0 0 0 0 1 5
1862 2 4.2 -8.6 0 0 0 0 1 5
1912 2 4.2 -8.4 0 0 0 0 1 5
1863 2 4.4 -8.6 0 0 0 0 1 5
1864 2 4.6 -8.6 0 0 0 0 1 5
1913 2 4.4 -8.4 0 0 0 0 1 5
1914 2 4.6 -8.4 0 0 0 0 1 5
1865 2 4.8 -8.6 0 0 0 0 1 5
1866 2 5 -8.6 0 0 0 0 1 5
1915 2 4.8 -8.4 0 0 0 0 1 5
1916 2 5 -8.4 0 0 0 0 1 5
1867 2 5.2 -8.6 0 0 0 0 1 5
1868 2 5.4 -8.6 0 0 0 0 1 5
1917 2 5.2 -8.4 0 0 0 0 1 5
1918 2 5.4 -8.4 0 0 0 0 1 5
1869 2 5.6 -8.6 0 0 0 0 1 5
1870 2 5.8 -8.6 0 0 0 0 1 5
1919 2 5.6 -8.4 0 0 0 0 1 5
1920 2 5.8 -8.4 0 0 0 0 1 5
1871 2 6 -8.6 0 0 0 0 1 5
1872 2 6.2 -8.6 0 0 0 0 1 5
1921 2 6 -8.4 0 0 0 0 1 5
1922 2 6.2 -8.4 0 0 0 0 1 5
1873 2 6.4 -8.6 0 0 0 0 1 5
1874 2 6.6 -8.6 0 0 0 0 1 5
1923 2 6.4 -8.4 0 0 0 0 1 5
1924 2 6.6 -8.4 0 0 0 0 1 5
1875 2 6.8 -8.6 0 0 0 0 1 5
1876 2 7 -8.6 0 0 0 0 1 5
1925 2 6.8 -8.4 0 0 0 0 1 5
1926 2 7 -8.4 0 0 0 0 1 5
1877 2 7.2 -8.6 0 0 0 0 1 5
1927 2 7.2 -8.4 0 0 0 0 1 5
1878 2 7.4 -8.6 0 0 0 0 1 5
1879 2 7.6 -8.6 0 0 0 0 1 5
1928 2 7.4 -8.4 0 0 0 0 1 5
1929 2 7.6 -8.4 0 0 0 0 1 5
1880 2 7.8 -8.6 0 0 0 0 1 5
1881 2 8 -8.6 0 0 0 0 1 5
1930 2 7.8 -8.4 0 0 0 0 1 5
1931 2 8 -8.4 0 0 0 0 1 5
1882 2 8.2 -8.6 0 0 0 0 1 5
1883 2 8.4 -8.6 0 0 0 0 1 5
1932 2 8.2 -8.4 0 0 0 0 1 5
1933 2 8.4 -8.4 0 0 0 0 1 5
1884 2 8.6 -8.6 0 0 0 0 1 5
1885 2 8.8 -8.6 0 0 0 0 1 5
1934 2 8.6 -8.4 0 0 0 0 1 5
1935 2 8.8 -8.4 0 0 0 0 1 5
1886 2 9 -8.6 0 0 0 0 1 5
1887 2 9.2 -8.6 0 0 0 0 1 5
1936 2 9 -8.4 0 0 0 0 1 5
1937 2 9.2 -8.4 0 0 0 0 1 5
1888 2 9.4 -8.6 0 0 0 0 1 5
1889 2 9.6 -8.6 0 0 0 0 1 5
1938 2 9.4 -8.4 0 0 0 0 1 5
1939 2 9.6 -8.4 0 0 0 0 1 5
1890 2 9.8 -8.6 0 0 0 0 1 5
1940 2 9.8 -8.4 0 0 0 0 1 5
1891 2 10 -8.6 0 0 0 0 1 5
1941 2 10 -8.4 0 0 0 0 1 5
1892 2 10.2 -8.6 0 0 0 0 1 5
1942 2 10.2 -8.4 0 0 0 0 1 5
1893 2 10.4 -8.6 0 0 0 0 1 5
1943 2 10.4 -8.4 0 0 0 0 1 5
1894 2 10.6 -8.6 0 0 0 0 1 5
1944 2 10.6 -8.4 0 0 0 0 1 5
1895 2 10.8 -8.6 0 0 0 0 1 5
1945 2 10.8 -8.4 0 0 0 0 1 5
1951 2 2 -8.2 0 0 0 0 1 5
2001 2 2 -8 0 0 0 0 1 5
1952 2 2.2 -8.2 0 0 0 0 1 5
1953 2 2.4 -8.2 0 0 0 0 1 5
2002 2 2.2 -8 0 0 0 0 1 5
2003 2 2.4 -8 0 0 0 0 1 5
1954 2 2.6 -8.2 0 0 0 0 1 5
1955 2 2.8 -8.2 0 0 0 0 1 5
2004 2 2.6 -8 0 0 0 0 1 5
2005 2 2.8 -8 0 0 0 0 1 5
1956 2 3 -8.2 0 0 0 0 1 5
1957 2 3.2 -8.2 0 0 0 0 1 5
2006 2 3 -8 0 0 0 0 1 5
2007 2 3.2 -8 0 0 0 0 1 5
1958 2 3.4 -8.2 0 0 0 0 1 5
1959 2 3.6 -8.2 0 0 0 0 1 5
2008 2 3.4 -8 0 0 0 0 1 5
2009 2 3.6 -8 0 0 0 0 1 5
1960 2 3.8 -8.2 0 0 0 0 1 5
2010 2 3.8 -8 0 0 0 0 1 5
1961 2 4 -8.2 0 0 0 0 1 5
2011 2 4 -8 0 0 0 0 1 5
1962 2 4.2 -8.2 0 0 0 0 1 5
2012 2 4.2 -8 0 0 0 0 1 5
1963 2 4.4 -8.2 0 0 0 0 1 5
1964 2 4.6 -8.2 0 0 0 0 1 5
2013 2 4.4 -8 0 0 0 0 1 5
2014 2 4.6 -8 0 0 0 0 1 5
1965 2 4.8 -8.2 0 0 0 0 1 5
1966 2 5 -8.2 0 0 0 0 1 5
2015 2 4.8 -8 0 0 0 0 1 5
2016 2 5 -8 0 0 0 0 1 5
1967 2 5.2 -8.2 0 0 0 0 1 5
1968 2 5.4 -8.2 0 0 0 0 1 5
2017 2 5.2 -8 0 0 0 0 1 5
2018 2 5.4 -8 0 0 0 0 1 5
1969 2 5.6 -8.2 0 0 0 0 1 5
1970 2 5.8 -8.2 0 0 0 0 1 5
2019 2 5.6 -8 0 0 0 0 1 5
2020 2 5.8 -8 0 0 0 0 1 5
1971 2 6 -8.2 0 0 0 0 1 5
1972 2 6.2 -8.2 0 0 0 0 1 5
2021 2 6 -8 0 0 0 0 1 5
2022 2 6.2 -8 0 0 0 0 1 5
1973 2 6.4 -8.2 0 0 0 0 1 5
1974 2 6.6 -8.2 0 0 0 0 1 5
2023 2 6.4 -8 0 0 0 0 1 5
2024 2 6.6 -8 0 0 0 0 1 5
1975 2 6.8 -8.2 0 0 0 0 1 5
1976 2 7 -8.2 0 0 0 0 1 5
2025 2 6.8 -8 0 0 0 0 1 5
2026 2 7 -8 0 0 0 0 1 5
1977 2 7.2 -8.2 0 0 0 0 1 5
2027 2 7.2 -8 0 0 0 0 1 5
1978 2 7.4 -8.2 0 0 0 0 1 5
1979 2 7.6 -8.2 0 0 0 0 1 5
2028 2 7.4 -8 0 0 0 0 1 5
2029 2 7.6 -8 0 0 0 0 1 5
1980 2 7.8 -8.2 0 0 0 0 1 5
1981 2 8 -8.2 0 0 0 0 1 5
2030 2 7.8 -8 0 0 0 0 1 5
2031 2 8 -8 0 0 0 0 1 5
1982 2 8.2 -8.2 0 0 0 0 1 5
1983 2 8.4 -8.2 0 0 0 0 1 5
2032 2 8.2 -8 0 0 0 0 1 5
2033 2 8.4 -8 0 0 0 0 1 5
1984 2 8.6 -8.2 0 0 0 0 1 5
1985 2 8.8 -8.2 0 0 0 0 1 5
2034 2 8.6 -8 0 0 0 0 1 5
2035 2 8.8 -8 0 0 0 0 1 5
1986 2 9 -8.2 0 0 0 0 1 5
1987 2 9.2 -8.2 0 0 0 0 1 5
2036 2 9 -8 0 0 0 0 1 5
2037 2 9.2 -8 0 0 0 0 1 5
1988 2 9.4 -8.2 0 0 0 0 1 5
1989 2 9.6 -8.2 0 0 0 0 1 5
2038 2 9.4 -8 0 0 0 0 1 5
2039 2 9.6 -8 0 0 0 0 1 5
1990 2 9.8 -8.2 0 0 0 0 1 5
2040 2 9.8 -8 0 0 0 0 1 5
1991 2 10 -8.2 0 0 0 0 1 5
2041 2 10 -8 0 0 0 0 1 5
1992 2 10.2 -8.2 0 0 0 0 1 5
2042 2 10.2 -8 0 0 0 0 1 5
1993 2 10.4 -8.2 0 0 0 0 1 5
2043 2 10.4 -8 0 0 0 0 1 5
1994 2 10.6 -8.2 0 0 0 0 1 5
2044 2 10.6 -8 0 0 0 0 1 5
1995 2 10.8 -8.2 0 0 0 0 1 5
2045 2 10.8 -8 0 0 0 0 1 5
2051 2 2 -7.8 0 0 0 0 1 5
2101 2 2 -7.6 0 0 0 0 1 5
2052 2 2.2 -7.8 0 0 0 0 1 5
2053 2 2.4 -7.8 0 0 0 0 1 5
2102 2 2.2 -7.6 0 0 0 0 1 5
2103 2 2.4 -7.6 0 0 0 0 1 5
2054 2 2.6 -7.8 0 0 0 0 1 5
2055 2 2.8 -7.8 0 0 0 0 1 5
2104 2 2.6 -7.6 0 0 0 0 1 5
2105 2 2.8 -7.6 0 0 0 0 1 5
2056 2 3 -7.8 0 0 0 0 1 5
2057 2 3.2 -7.8 0 0 0 0 1 5
2106 2 3 -7.6 0 0 0 0 1 5
2107 2 3.2 -7.6 0 0 0 0 1 5
2058 2 3.4 -7.8 0 0 0 0 1 5
2059 2 3.6 -7.8 0 0 0 0 1 5
2108 2 3.4 -7.6 0 0 0 0 1 5
2109 2 3.6 -7.6 0 0 0 0 1 5
2060 2 3.8 -7.8 0 0 0 0 1 5
2110 2 3.8 -7.6 0 0 0 0 1 5
2061 2 4 -7.8 0 0 0 0 1 5
2111 2 4 -7.6 0 0 0 0 1 5
2062 2 4.2 -7.8 0 0 0 0 1 5
2112 2 4.2 -7.6 0 0 0 0 1 5
2063 2 4.4 -7.8 0 0 0 0 1 5
2064 2 4.6 -7.8 0 0 0 0 1 5
2113 2 4.4 -7.6 0 0 0 0 1 5
2114 2 4.6 -7.6 0 0 0 0 1 5
2065 2 4.8 -7.8 0 0 0 0 1 5
2066 2 5 -7.8 0 0 0 0 1 5
2115 2 4.8 -7.6 0 0 0 0 1 5
2116 2 5 -7.6 0 0 0 0 1 5
2067 2 5.2 -7.8 0 0 0 0 1 5
2068 2 5.4 -7.8 0 0 0 0 1 5
2117 2 5.2 -7.6 0 0 0 0 1 5
2118 2 5.4 -7.6 0 0 0 0 1 5
2069 2 5.6 -7.8 0 0 0 0 1 5
2070 2 5.8 -7.8 0 0 0 0 1 5
2119 2 5.6 -7.6 0 0 0 0 1 5
2120 2 5.8 -7.6 0 0 0 0 1 5
2071 2 6 -7.8 0 0 0 0 1 5
2072 2 6.2 -7.8 0 0 0 0 1 5
2121 2 6 -7.6 0 0 0 0 1 5
2122 2 6.2 -7.6 0 0 0 0 1 5
2073 2 6.4 -7.8 0 0 0 0 1 5
2074 2 6.6 -7.8 0 0 0 0 1 5
2123 2 6.4 -7.6 0 0 0 0 1 5
2124 2 6.6 -7.6 0 0 0 0 1 5
2075 2 6.8 -7.8 0 0 0 0 1 5
2076 2 7 -7.8 0 0 0 0 1 5
2125 2 6.8 -7.6 0 0 0 0 1 5
2126 2 7 -7.6 0 0 0 0 1 5
2077 2 7.2 -7.8 0 0 0 0 1 5
2127 2 7.2 -7.6 0 0 0 0 1 5
2078 2 7.4 -7.8 0 0 0 0 1 5
2079 2 7.6 -7.8 0 0 0 0 1 5
2128 2 7.4 -7.6 0 0 0 0 1 5
2129 2 7.6 -7.6 0 0 0 0 1 5
2080 2 7.8 -7.8 0 0 0 0 1 5
2081 2 8 -7.8 0 0 0 0 1 5
2130 2 7.8 -7.6 0 0 0 0 1 5
2131 2 8 -7.6 0 0 0 0 1 5
2082 2 8.2 -7.8 0 0 0 0 1 5
2083 2 8.4 -7.8 0 0 0 0 1 5
2132 2 8.2 -7.6 0 0 0 0 1 5
2133 2 8.4 -7.6 0 0 0 0 1 5
2084 2 8.6 -7.8 0 0 0 0 1 5
2085 2 8.8 -7.8 0 0 0 0 1 5
2134 2 8.6 -7.6 0 0 0 0 1 5
2135 2 8.8 -7.6 0 0 0 0 1 5
2086 2 9 -7.8 0 0 0 0 1 5
2087 2 9.2 -7.8 0 0 0 0 1 5
2136 2 9 -7.6 0 0 0 0 1 5
2137 2 9.2 -7.6 0 0 0 0 1 5
2088 2 9.4 -7.8 0 0 0 0 1 5
2089 2 9.6 -7.8 0 0 0 0 1 5
2138 2 9.4 -7.6 0 0 0 0 1 5
2139 2 9.6 -7.6 0 0 0 0 1 5
2090 2 9.8 -7.8 0 0 0 0 1 5
2140 2 9.8 -7.6 0 0 0 0 1 5
2091 2 10 -7.8 0 0 0 0 1 5
2141 2 10 -7.6 0 0 0 0 1 5
2092 2 10.2 -7.8 0 0 0 0 1 5
2142 2 10.2 -7.6 0 0 0 0 1 5
2093 2 10.4 -7.8 0 0 0 0 1 5
2143 2 10.4 -7.6 0 0 0 0 1 5
2094 2 10.6 -7.8 0 0 0 0 1 5
2144 2 10.6 -7.6 0 0 0 0 1 5
2095 2 10.8 -7.8 0 0 0 0 1 5
2145 2 10.8 -7.6 0 0 0 0 1 5
2151 2 2 -7.4 0 0 0 0 1.00147 5
2201 2 2 -7.2 0 0 0 0 1.00074 5
2152 2 2.2 -7.4 0 0 0 0 0.998014 5
2153 2 2.4 -7.4 0 0 0 0 1.00875 5
2202 2 2.2 -7.2 0 0 0 0 0.999976 5
2203 2 2.4 -7.2 0 0 0 0 1.00197 5
2154 2 2.6 -7.4 0 0 0 0 0.998534 5
2155 2 2.8 -7.4 0 0 0 0 0.998997 5
2204 2 2.6 -7.2 0 0 0 0 1.00003 5
2205 2 2.8 -7.2 0 0 0 0 0.999573 5
2156 2 3 -7.4 0 0 0 0 1.00055 5
2157 2 3.2 -7.4 0 0 0 0 0.991851 5
2206 2 3 -7.2 0 0 0 0 0.999089 5
2207 2 3.2 -7.2 0 0 0 0 0.997458 5
2158 2 3.4 -7.4 0 0 0 0 1.00518 5
2159 2 3.6 -7.4 0 0 0 0 1.00003 5
2208 2 3.4 -7.2 0 0 0 0 1.00191 5
2209 2 3.6 -7.2 0 0 0 0 1.00037 5
2160 2 3.8 -7.4 0 0 0 0 1.01872 5
2210 2 3.8 -7.2 0 0 0 0 1.00844 5
2161 2 4 -7.4 0 0 0 0 1.02335 5
2211 2 4 -7.2 0 0 0 0 1.01739 5
2162 2 4.2 -7.4 0 0 0 0 1.02743 5
2212 2 4.2 -7.2 0 0 0 0 1.02398 5
2163 2 4.4 -7.4 0 0 0 0 1.0248 5
2164 2 4.6 -7.4 0 0 0 0 1.02317 5
2213 2 4.4 -7.2 0 0 0 0 1.02638 5
2214 2 4.6 -7.2 0 0 0 0 1.02329 5
2165 2 4.8 -7.4 0 0 0 0 1.0213 5
2166 2 5 -7.4 0 0 0 0 1.02129 5
2215 2 4.8 -7.2 0 0 0 0 1.02179 5
2216 2 5 -7.2 0 0 0 0 1.02179 5
2167 2 5.2 -7.4 0 0 0 0 1.02132 5
2168 2 5.4 -7.4 0 0 0 0 1.02125 5
2217 2 5.2 -7.2 0 0 0 0 1.02179 5
2218 2 5.4 -7.2 0 0 0 0 1.02167 5
2169 2 5.6 -7.4 0 0 0 0 1.02127 5
2170 2 5.8 -7.4 0 0 0 0 1.02127 5
2219 2 5.6 -7.2 0 0 0 0 1.02163 5
2220 2 5.8 -7.2 0 0 0 0 1.02157 5
2171 2 6 -7.4 0 0 0 0 1.02134 5
2172 2 6.2 -7.4 0 0 0 0 1.02147 5
2221 2 6 -7.2 0 0 0 0 1.02165 5
2222 2 6.2 -7.2 0 0 0 0 1.02176 5
2173 2 6.4 -7.4 0 0 0 0 1.02153 5
2174 2 6.6 -7.4 0 0 0 0 1.02161 5
2223 2 6.4 -7.2 0 0 0 0 1.02181 5
2224 2 6.6 -7.2 0 0 0 0 1.02185 5
2175 2 6.8 -7.4 0 0 0 0 1.02136 5
2176 2 7 -7.4 0 0 0 0 1.02131 5
2225 2 6.8 -7.2 0 0 0 0 1.02182 5
2226 2 7 -7.2 0 0 0 0 1.02178 5
2177 2 7.2 -7.4 0 0 0 0 1.02141 5
2227 2 7.2 -7.2 0 0 0 0 1.02185 5
2178 2 7.4 -7.4 0 0 0 0 1.02154 5
2179 2 7.6 -7.4 0 0 0 0 1.02154 5
2228 2 7.4 -7.2 0 0 0 0 1.02189 5
2229 2 7.6 -7.2 0 0 0 0 1.02184 5
2180 2 7.8 -7.4 0 0 0 0 1.02134 5
2181 2 8 -7.4 0 0 0 0 1.02143 5
2230 2 7.8 -7.2 0 0 0 0 1.02177 5
2231 2 8 -7.2 0 0 0 0 1.02185 5
2182 2 8.2 -7.4 0 0 0 0 1.02153 5
2183 2 8.4 -7.4 0 0 0 0 1.02158 5
2232 2 8.2 -7.2 0 0 0 0 1.02187 5
2233 2 8.4 -7.2 0 0 0 0 1.02187 5
2184 2 8.6 -7.4 0 0 0 0 1.02165 5
2185 2 8.8 -7.4 0 0 0 0 1.0217 5
2234 2 8.6 -7.2 0 0 0 0 1.02187 5
2235 2 8.8 -7.2 0 0 0 0 1.02188 5
2186 2 9 -7.4 0 0 0 0 1.0216 5
2187 2 9.2 -7.4 0 0 0 0 1.02156 5
2236 2 9 -7.2 0 0 0 0 1.02186 5
2237 2 9.2 -7.2 0 0 0 0 1.02186 5
2188 2 9.4 -7.4 0 0 0 0 1.02153 5
2189 2 9.6 -7.4 0 0 0 0 1.02158 5
2238 2 9.4 -7.2 0 0 0 0 1.02186 5
2239 2 9.6 -7.2 0 0 0 0 1.02188 5
2190 2 9.8 -7.4 0 0 0 0 1.02161 5
2240 2 9.8 -7.2 0 0 0 0 1.02187 5
2191 2 10 -7.4 0 0 0 0 1.02164 5
2241 2 10 -7.2 0 0 0 0 1.02186 5
2192 2 10.2 -7.4 0 0 0 0 1.02161 5
2242 2 10.2 -7.2 0 0 0 0 1.02184 5
2193 2 10.4 -7.4 0 0 0 0 1.02162 5
2243 2 10.4 -7.2 0 0 0 0 1.02181 5
2194 2 10.6 -7.4 0 0 0 0 1.02155 5
2244 2 10.6 -7.2 0 0 0 0 1.02178 5
2195 2 10.8 -7.4 0 0 0 0 1.02155 5
2245 2 10.8 -7.2 0 0 0 0 1.02175 5
14300 1 0.953613 -6.75746 0.02 0 0 0 1 2
14301 1 1.16339 -6.75211 0.02 0 -2.69127e-15 -3.51154e-15 1 2
14302 1 1.37119 -6.74445 0.02 0 -6.9459e-08 -2.8076e-08 1 2
14303 1 1.57388 -6.74367 0.02 0 -0.000141926 -6.67946e-05 1 2
14304 1 1.77492 -6.76853 0.02 0 -0.00243361 -0.000804682 1 2
14305 1 1.97432 -6.73669 0.02 0 -0.00325828 -0.000684523 1 2
14306 1 2.16868 -6.75579 0.02 0 -0.00362627 -0.000565986 1 2
14307 1 2.36981 -6.74329 0.02 0 -0.00279838 -0.00047311 1 2
2251 2 2 -7 0 0 0 0 1.00111 5
13615 1 2.80013 -6.75913 0.02 0 -0.00273403 -0.00040467 1 2
14308 1 2.57593 -6.78134 0.02 0 -0.00328348 -0.000386615 1 2
14309 1 2.56378 -6.59869 0.02 0 2.2932e-05 0.000386903 1 2
2252 2 2.2 -7 0 0 0 0 0.999913 5
2253 2 2.4 -7 0 0 0 0 1.00056 5
13616 1 3.01081 -6.77156 0.02 0 -0.00335868 -0.000462944 1 2
13617 1 3.21486 -6.73708 0.02 0 -0.00235135 -0.000329044 1 2
2254 2 2.6 -7 0 0 0 0 1.00004 5
2255 2 2.8 -7 0 0 0 0 0.999888 5
13618 1 3.40844 -6.73668 0.02 0 -0.00271772 -0.000409937 1 2
13619 1 3.60058 -6.76418 0.02 0 -0.00359721 -0.000172167 1 2
2256 2 3 -7 0 0 0 0 0.999405 5
2257 2 3.2 -7 0 0 0 0 0.998961 5
13620 1 3.78786 -6.72592 0.02 0 -0.00473791 0.000144429 1 2
13621 1 3.98073 -6.74511 0.02 0 -0.0104793 0.00121145 1 2
13622 1 4.01714 -6.79202 0.00605863 -0.000287911 -2.14647e-05 -3.94814e-05 1.02693 0
2258 2 3.4 -7 0 0 0 0 1.00095 5
2259 2 3.6 -7 0 0 0 0 1.00126 5
2260 2 3.8 -7 0 0 0 0 1.00731 5
13623 1 4.17307 -6.76392 0.00574851 -1.32871e-05 4.73224e-05 -5.45738e-05 1.03219 0
13624 1 4.28454 -6.63902 0.00861527 0.00136217 6.23335e-05 -2.42072e-05 1.02918 0
13625 1 4.46114 -6.59063 0.00992532 0.00128435 1.43733e-05 1.53693e-06 1.02509 0
12903 1 4.38 -6.78223 0.00502122 -0.000236805 1.24056e-06 -1.17489e-05 1.02828 0
2261 2 4 -7 0 0 0 0 1.01476 5
2262 2 4.2 -7 0 0 0 0 1.02258 5
12905 1 4.54678 -6.72728 0.00615024 0.000332957 5.4102e-06 -2.58571e-06 1.02402 0
12907 1 4.69274 -6.74227 0.00496894 0.000220749 1.3278e-05 -1.95041e-06 1.02311 0
2263 2 4.4 -7 0 0 0 0 1.0267 5
2264 2 4.6 -7 0 0 0 0 1.0238 5
12909 1 4.82532 -6.66538 0.00609656 0.000607661 1.92356e-05 -2.69447e-07 1.02242 0
12911 1 4.9386 -6.72324 0.00411836 0.000170989 1.68594e-05 -2.71996e-06 1.02266 0
12207 1 5.15261 -6.60339 0.00569976 0.000588773 1.69881e-05 -3.06208e-06 1.0222 0
12210 1 5.07166 -6.78616 0.00264795 -0.000127832 1.32544e-05 -3.61383e-06 1.02305 0
2265 2 4.8 -7 0 0 0 0 1.02222 5
2266 2 5 -7 0 0 0 0 1.02217 5
12212 1 5.27619 -6.65572 0.00425863 0.000364311 1.21729e-05 -3.26832e-06 1.02198 0
11540 1 5.33374 -6.78828 0.00215233 -0.000114268 8.2339e-06 -3.13659e-06 1.02257 0
12214 1 5.49024 -6.61861 0.00432925 0.000407919 5.43039e-06 -1.78587e-06 1.02178 0
11552 1 5.53705 -6.78369 0.00193026 -0.000105758 3.76977e-06 -1.61107e-06 1.0224 0
2267 2 5.2 -7 0 0 0 0 1.02218 5
2268 2 5.4 -7 0 0 0 0 1.02202 5
10855 1 5.72213 -6.71858 0.00247673 6.62577e-05 -9.13737e-07 4.43172e-08 1.02194 0
10858 1 5.87068 -6.7466 0.00196098 -5.23149e-05 -3.83823e-06 1.28455e-06 1.02216 0
2269 2 5.6 -7 0 0 0 0 1.02191 5
2270 2 5.8 -7 0 0 0 0 1.02182 5
10169 1 6.03528 -6.7653 0.00165259 -0.000122208 -6.20802e-06 2.43783e-06 1.02236 0
10861 1 6.22789 -6.5979 0.00343164 0.000241226 -1.35949e-05 5.04463e-06 1.02178 0
10172 1 6.22277 -6.76516 0.00157867 -0.000130738 -7.82297e-06 3.33474e-06 1.0224 0
2271 2 6 -7 0 0 0 0 1.02192 5
2272 2 6.2 -7 0 0 0 0 1.02203 5
3109 1 6.41042 -6.76012 0.00156471 -0.000134133 -8.48403e-06 3.82207e-06 1.0224 0
3113 1 6.59228 -6.75266 0.00157509 -0.000144981 -8.2758e-06 3.94062e-06 1.02245 0
3115 1 6.77093 -6.74832 0.00153886 -0.000163134 -7.23988e-06 3.82972e-06 1.02244 0
2273 2 6.4 -7 0 0 0 0 1.02207 5
2274 2 6.6 -7 0 0 0 0 1.02209 5
3116 1 6.9557 -6.69663 0.00193604 -5.55761e-05 -6.81499e-06 4.17816e-06 1.0221 0
3119 1 7.07088 -6.81377 0.00106583 -0.000332829 -3.90868e-06 2.57641e-06 1.02262 0
2275 2 6.8 -7 0 0 0 0 1.0221 5
2276 2 7 -7 0 0 0 0 1.02213 5
3117 1 7.23759 -6.67929 0.00196256 -2.64199e-05 -3.79929e-06 3.28836e-06 1.02206 0
3118 1 7.46152 -6.6263 0.00238671 -2.37804e-06 -1.93998e-06 3.10873e-06 1.02196 0
3121 1 7.37967 -6.79172 0.00111184 -0.000265615 -1.621e-06 1.67959e-06 1.02255 0
3123 1 7.59524 -6.76989 0.00120575 -0.000250436 -2.70049e-07 1.20157e-06 1.02251 0
2277 2 7.2 -7 0 0 0 0 1.02218 5
2278 2 7.4 -7 0 0 0 0 1.02218 5
2279 2 7.6 -7 0 0 0 0 1.02214 5
3120 1 7.76764 -6.65297 0.00203223 -3.1334e-05 5.23503e-07 1.67306e-06 1.02194 0
3122 1 7.93735 -6.63278 0.00213889 -2.85159e-05 1.18111e-06 1.34467e-06 1.02193 0
3125 1 7.89394 -6.81168 0.000924914 -0.000327352 9.63968e-07 1.46996e-07 1.02255 0
2280 2 7.8 -7 0 0 0 0 1.02211 5
2281 2 8 -7 0 0 0 0 1.02214 5
3126 1 8.10613 -6.73158 0.00134132 -0.000154197 1.46333e-06 4.09837e-07 1.02228 0
3127 1 8.29194 -6.76178 0.00111341 -0.000233222 1.58507e-06 8.99985e-08 1.02243 0
3128 1 8.47751 -6.7365 0.00126309 -0.000184 1.67708e-06 8.73533e-08 1.02233 0
2282 2 8.2 -7 0 0 0 0 1.0221 5
2283 2 8.4 -7 0 0 0 0 1.02209 5
3129 1 8.65084 -6.73909 0.00122166 -0.000200303 1.50028e-06 -2.04046e-08 1.02236 0
3130 1 8.82149 -6.72851 0.00127912 -0.000174511 1.30744e-06 -6.41755e-08 1.02229 0
2284 2 8.6 -7 0 0 0 0 1.02208 5
2285 2 8.8 -7 0 0 0 0 1.02206 5
3131 1 8.99033 -6.73686 0.00120356 -0.000187517 1.00175e-06 -1.09013e-07 1.02232 0
3132 1 9.16645 -6.76145 0.0010679 -0.000244008 6.61717e-07 -1.22022e-07 1.02246 0
2286 2 9 -7 0 0 0 0 1.02208 5
2287 2 9.2 -7 0 0 0 0 1.02209 5
3133 1 9.35907 -6.69703 0.00146263 -8.47787e-05 2.81019e-07 -7.58047e-08 1.02207 0
3134 1 9.50081 -6.75851 0.0010614 -0.000225708 9.3168e-08 -2.35366e-08 1.02241 0
3135 1 9.67514 -6.7312 0.00124214 -0.000159106 -2.85699e-07 8.23085e-08 1.02227 0
2288 2 9.4 -7 0 0 0 0 1.02207 5
2289 2 9.6 -7 0 0 0 0 1.02208 5
3136 1 9.8604 -6.75557 0.0011073 -0.000212375 -5.41676e-07 1.76347e-07 1.02238 0
3137 1 10.0614 -6.74775 0.00116551 -0.000193419 -7.7202e-07 2.85759e-07 1.02232 0
2290 2 9.8 -7 0 0 0 0 1.02208 5
2291 2 10 -7 0 0 0 0 1.02207 5
3138 1 10.2515 -6.74943 0.00116573 -0.000204113 -9.8204e-07 3.94289e-07 1.02232 0
3139 1 10.4435 -6.73736 0.00125665 -0.000184387 -1.06297e-06 4.79018e-07 1.02223 0
2292 2 10.2 -7 0 0 0 0 1.02204 5
2293 2 10.4 -7 0 0 0 0 1.02201 5
3140 1 10.6302 -6.7455 0.00121428 -0.000210476 -1.11439e-06 5.37457e-07 1.02226 0
3141 1 10.8229 -6.73899 0.00126894 -0.000201011 -1.0169e-06 5.65663e-07 1.0222 0
726 2 7 9.8 0 0 0 0 1 5
2294 2 10.6 -7 0 0 0 0 1.02197 5
2295 2 10.8 -7 0 0 0 0 1.02194 5
14310 1 0.829409 -6.17885 0.02 0 0 0 1 2
14311 1 0.872847 -6.37417 0.02 0 0 0 1 2
14312 1 0.920092 -6.56601 0.02 0 0 0 1 2
14313 1 1.11372 -6.56694 0.02 0 0 0 1 2
14314 1 1.07087 -6.37597 0.02 0 0 0 1 2
14315 1 1.02728 -6.18372 0.02 0 0 0 1 2
14316 1 1.26925 -6.37632 0.02 0 0 0 1 2
14317 1 1.23224 -6.18814 0.02 0 0 0 1 2
14318 1 1.31015 -6.56434 0.02 0 -8.66291e-11 -2.95622e-11 1 2
14319 1 1.51281 -6.56357 0.02 0 -4.68742e-08 -7.51975e-09 1 2
14320 1 1.46902 -6.37778 0.02 0 2.18359e-11 8.09636e-11 1 2
14321 1 1.44487 -6.19283 0.02 0 1.73879e-13 1.26753e-12 1 2
14322 1 1.72389 -6.57858 0.02 0 -2.43316e-05 2.89843e-05 1 2
14323 1 1.67033 -6.39651 0.02 0 2.07581e-06 7.55519e-06 1 2
14324 1 1.66373 -6.21069 0.02 0 3.10315e-08 1.78226e-07 1 2
14325 1 1.93003 -6.56441 0.02 0 7.77964e-05 0.000427697 1 2
14326 1 1.87255 -6.39183 0.02 0 2.62196e-05 8.12294e-05 1 2
14328 1 1.89279 -6.21688 0.02 0 1.31889e-06 3.52565e-06 1 2
14327 1 2.08293 -6.39489 0.02 0 9.60649e-05 0.000196875 1 2
14329 1 2.14537 -6.56583 0.02 0 0.000179712 0.000508695 1 2
14330 1 2.14783 -6.23392 0.02 0 1.04628e-05 1.95972e-05 1 2
14331 1 2.34457 -6.56739 0.02 0 0.000198843 0.000511225 1 2
14332 1 2.33572 -6.39641 0.02 0 0.000139334 0.000179998 1 2
14334 1 2.37029 -6.22574 0.02 0 1.33407e-05 2.60701e-05 1 2
14333 1 2.5538 -6.42363 0.02 0 0.000165246 0.000207697 1 2
14335 1 2.58456 -6.23943 0.02 0 1.47772e-05 2.81085e-05 1 2
14336 1 2.79867 -6.5886 0.02 0 -7.56259e-05 0.000252939 1 2
14337 1 2.75843 -6.42354 0.02 0 0.000161971 0.000194366 1 2
14338 1 2.79615 -6.24453 0.02 0 1.50164e-05 2.2441e-05 1 2
13626 1 3.01604 -6.58618 0.02 0 -5.2129e-05 0.000327036 1 2
13627 1 2.97558 -6.41015 0.02 0 0.000151489 0.000200238 1 2
13628 1 3.00604 -6.22782 0.02 0 1.27622e-05 2.17948e-05 1 2
13630 1 3.21631 -6.55603 0.02 0 0.000153513 0.000333349 1 2
13631 1 3.19562 -6.38041 0.02 0 0.000109469 0.000137645 1 2
13633 1 3.21537 -6.20093 0.02 0 7.8407e-06 1.43276e-05 1 2
13629 1 3.41381 -6.55449 0.02 0 0.000188536 0.000403553 1 2
13632 1 3.42724 -6.37493 0.02 0 9.26787e-05 0.00014113 1 2
13634 1 3.4207 -6.19124 0.02 0 4.57823e-06 1.30743e-05 1 2
13636 1 3.61057 -6.56259 0.02 0 -5.80554e-05 0.000442425 1 2
13637 1 3.6366 -6.37295 0.02 0 -0.000352984 0.000113041 1 2
13639 1 3.63218 -6.18503 0.02 0 -0.000361233 5.10385e-05 1 2
13635 1 3.80917 -6.54316 0.02 0 -0.00199812 0.000315016 1 2
13638 1 3.83582 -6.35256 0.02 0 -0.00252993 5.27943e-05 1 2
13640 1 3.99992 -6.5543 0.02 0 -0.00584462 0.000807744 1.00208 2
13642 1 4.00036 -6.3578 0.0187906 0.000108543 -0.00483745 0.000434173 1.01499 0
13641 1 4.08795 -6.59823 0.0116485 0.00181384 0.000304122 -0.000105941 1.02581 0
13643 1 4.02938 -6.36479 0.014218 0.00043238 0.000301393 -6.82831e-05 1.02135 0
13644 1 4.18556 -6.47681 0.0116715 0.00214593 0.000193065 -1.07003e-05 1.02947 0
13646 1 4.21527 -6.2935 0.0125689 0.00254144 0.000189848 -2.55357e-05 1.02902 0
13645 1 4.3367 -6.4759 0.0116563 0.00229291 6.86586e-05 -3.62067e-06 1.02811 0
13647 1 4.37432 -6.29305 0.013493 0.00303531 6.27016e-05 1.16301e-06 1.02655 0
13649 1 4.49852 -6.41118 0.0126591 0.00231632 1.80539e-05 2.92469e-06 1.02452 0
13650 1 4.51081 -6.20423 0.0140875 0.00323283 1.94965e-05 9.0151e-06 1.02386 0
12904 1 4.62463 -6.54121 0.0100882 0.00145493 1.779e-05 2.85406e-06 1.02319 0
12916 1 4.64049 -6.33336 0.0127066 0.00257453 1.96016e-05 6.29481e-06 1.02325 0
12915 1 4.7948 -6.34003 0.011673 0.00223015 2.09311e-05 4.28408e-06 1.02302 0
12917 1 4.66191 -6.14189 0.0138336 0.0033367 1.62883e-05 9.62861e-06 1.02297 0
12918 1 4.8134 -6.15675 0.013037 0.00301765 1.61206e-05 7.05947e-06 1.02294 0
12920 1 4.77288 -6.52012 0.00942662 0.00136029 2.20787e-05 1.75017e-06 1.02279 0
12906 1 4.92453 -6.46523 0.00925756 0.00145292 2.18491e-05 1.0815e-06 1.0228 0
12921 1 4.94991 -6.26492 0.0114493 0.00231438 1.76269e-05 3.36789e-06 1.02298 0
12923 1 5.08305 -6.13204 0.0118851 0.00261837 1.17381e-05 3.25415e-06 1.02277 0
12926 1 5.09002 -6.3357 0.0099518 0.00174525 1.63189e-05 7.65017e-07 1.02279 0
12908 1 5.04862 -6.52686 0.00757031 0.00098764 1.99384e-05 -1.41372e-06 1.02252 0
12910 1 5.23777 -6.40924 0.00833892 0.00124148 1.30828e-05 -9.85836e-07 1.02242 0
12927 1 5.23453 -6.22764 0.0103962 0.00195562 9.68571e-06 1.38749e-06 1.02255 0