ITEM: TIMESTEP
19000
ITEM: NUMBER OF ATOMS
10675
ITEM: BOX BOUNDS ff ff pp
0.0000000000000000e+00 2.2000000000000000e+01
-1.0000000000000000e+01 1.0000000000000000e+01
-2.0000000000000000e-02 2.0000000000000000e-02
ITEM: ATOMS id type x y vx vy fx fy c_den c_phase
1501 2 2 -10 0 0 0 0 1 5
1551 2 2 -9.8 0 0 0 0 1 5
1601 2 2 -9.6 0 0 0 0 1 5
1502 2 2.2 -10 0 0 0 0 1 5
1503 2 2.4 -10 0 0 0 0 1 5
1552 2 2.2 -9.8 0 0 0 0 1 5
1553 2 2.4 -9.8 0 0 0 0 1 5
1602 2 2.2 -9.6 0 0 0 0 1 5
1603 2 2.4 -9.6 0 0 0 0 1 5
1504 2 2.6 -10 0 0 0 0 1 5
1505 2 2.8 -10 0 0 0 0 1 5
1554 2 2.6 -9.8 0 0 0 0 1 5
1555 2 2.8 -9.8 0 0 0 0 1 5
1604 2 2.6 -9.6 0 0 0 0 1 5
1605 2 2.8 -9.6 0 0 0 0 1 5
1506 2 3 -10 0 0 0 0 1 5
1507 2 3.2 -10 0 0 0 0 1 5
1556 2 3 -9.8 0 0 0 0 1 5
1557 2 3.2 -9.8 0 0 0 0 1 5
1606 2 3 -9.6 0 0 0 0 1 5
1607 2 3.2 -9.6 0 0 0 0 1 5
1508 2 3.4 -10 0 0 0 0 1 5
1509 2 3.6 -10 0 0 0 0 1 5
1558 2 3.4 -9.8 0 0 0 0 1 5
1559 2 3.6 -9.8 0 0 0 0 1 5
1608 2 3.4 -9.6 0 0 0 0 1 5
1609 2 3.6 -9.6 0 0 0 0 1 5
1510 2 3.8 -10 0 0 0 0 1 5
1560 2 3.8 -9.8 0 0 0 0 1 5
1610 2 3.8 -9.6 0 0 0 0 1 5
1511 2 4 -10 0 0 0 0 1 5
1561 2 4 -9.8 0 0 0 0 1 5
1611 2 4 -9.6 0 0 0 0 1 5
1512 2 4.2 -10 0 0 0 0 1 5
1562 2 4.2 -9.8 0 0 0 0 1 5
1612 2 4.2 -9.6 0 0 0 0 1 5
1513 2 4.4 -10 0 0 0 0 1 5
1514 2 4.6 -10 0 0 0 0 1 5
1563 2 4.4 -9.8 0 0 0 0 1 5
1564 2 4.6 -9.8 0 0 0 0 1 5
1613 2 4.4 -9.6 0 0 0 0 1 5
1614 2 4.6 -9.6 0 0 0 0 1 5
1515 2 4.8 -10 0 0 0 0 1 5
1516 2 5 -10 0 0 0 0 1 5
1565 2 4.8 -9.8 0 0 0 0 1 5
1566 2 5 -9.8 0 0 0 0 1 5
1615 2 4.8 -9.6 0 0 0 0 1 5
1616 2 5 -9.6 0 0 0 0 1 5
1517 2 5.2 -10 0 0 0 0 1 5
1518 2 5.4 -10 0 0 0 0 1 5
1567 2 5.2 -9.8 0 0 0 0 1 5
1568 2 5.4 -9.8 0 0 0 0 1 5
1617 2 5.2 -9.6 0 0 0 0 1 5
1618 2 5.4 -9.6 0 0 0 0 1 5
1519 2 5.6 -10 0 0 0 0 1 5
1520 2 5.8 -10 0 0 0 0 1 5
1569 2 5.6 -9.8 0 0 0 0 1 5
1570 2 5.8 -9.8 0 0 0 0 1 5
1619 2 5.6 -9.6 0 0 0 0 1 5
1620 2 5.8 -9.6 0 0 0 0 1 5
1521 2 6 -10 0 0 0 0 1 5
1522 2 6.2 -10 0 0 0 0 1 5
1571 2 6 -9.8 0 0 0 0 1 5
1572 2 6.2 -9.8 0 0 0 0 1 5
1621 2 6 -9.6 0 0 0 0 1 5
1622 2 6.2 -9.6 0 0 0 0 1 5
1523 2 6.4 -10 0 0 0 0 1 5
1524 2 6.6 -10 0 0 0 0 1 5
1573 2 6.4 -9.8 0 0 0 0 1 5
1574 2 6.6 -9.8 0 0 0 0 1 5
1623 2 6.4 -9.6 0 0 0 0 1 5
1624 2 6.6 -9.6 0 0 0 0 1 5
1525 2 6.8 -10 0 0 0 0 1 5
1526 2 7 -10 0 0 0 0 1 5
1575 2 6.8 -9.8 0 0 0 0 1 5
1576 2 7 -9.8 0 0 0 0 1 5
1625 2 6.8 -9.6 0 0 0 0 1 5
1626 2 7 -9.6 0 0 0 0 1 5
1527 2 7.2 -10 0 0 0 0 1 5
1577 2 7.2 -9.8 0 0 0 0 1 5
1627 2 7.2 -9.6 0 0 0 0 1 5
1528 2 7.4 -10 0 0 0 0 1 5
1529 2 7.6 -10 0 0 0 0 1 5
1578 2 7.4 -9.8 0 0 0 0 1 5
1579 2 7.6 -9.8 0 0 0 0 1 5
1628 2 7.4 -9.6 0 0 0 0 1 5
1629 2 7.6 -9.6 0 0 0 0 1 5
1530 2 7.8 -10 0 0 0 0 1 5
1531 2 8 -10 0 0 0 0 1 5
1580 2 7.8 -9.8 0 0 0 0 1 5
1581 2 8 -9.8 0 0 0 0 1 5
1630 2 7.8 -9.6 0 0 0 0 1 5
1631 2 8 -9.6 0 0 0 0 1 5
1532 2 8.2 -10 0 0 0 0 1 5
1533 2 8.4 -10 0 0 0 0 1 5
1582 2 8.2 -9.8 0 0 0 0 1 5
1583 2 8.4 -9.8 0 0 0 0 1 5
1632 2 8.2 -9.6 0 0 0 0 1 5
1633 2 8.4 -9.6 0 0 0 0 1 5
1534 2 8.6 -10 0 0 0 0 1 5
1535 2 8.8 -10 0 0 0 0 1 5
1584 2 8.6 -9.8 0 0 0 0 1 5
1585 2 8.8 -9.8 0 0 0 0 1 5
1634 2 8.6 -9.6 0 0 0 0 1 5
1635 2 8.8 -9.6 0 0 0 0 1 5
1536 2 9 -10 0 0 0 0 1 5
1537 2 9.2 -10 0 0 0 0 1 5
1586 2 9 -9.8 0 0 0 0 1 5
1587 2 9.2 -9.8 0 0 0 0 1 5
1636 2 9 -9.6 0 0 0 0 1 5
1637 2 9.2 -9.6 0 0 0 0 1 5
1538 2 9.4 -10 0 0 0 0 1 5
1539 2 9.6 -10 0 0 0 0 1 5
1588 2 9.4 -9.8 0 0 0 0 1 5
1589 2 9.6 -9.8 0 0 0 0 1 5
1638 2 9.4 -9.6 0 0 0 0 1 5
1639 2 9.6 -9.6 0 0 0 0 1 5
1540 2 9.8 -10 0 0 0 0 1 5
1590 2 9.8 -9.8 0 0 0 0 1 5
1640 2 9.8 -9.6 0 0 0 0 1 5
1541 2 10 -10 0 0 0 0 1 5
1591 2 10 -9.8 0 0 0 0 1 5
1641 2 10 -9.6 0 0 0 0 1 5
1542 2 10.2 -10 0 0 0 0 1 5
1592 2 10.2 -9.8 0 0 0 0 1 5
1642 2 10.2 -9.6 0 0 0 0 1 5
1543 2 10.4 -10 0 0 0 0 1 5
1593 2 10.4 -9.8 0 0 0 0 1 5
1643 2 10.4 -9.6 0 0 0 0 1 5
1544 2 10.6 -10 0 0 0 0 1 5
1594 2 10.6 -9.8 0 0 0 0 1 5
1644 2 10.6 -9.6 0 0 0 0 1 5
1545 2 10.8 -10 0 0 0 0 1 5
1595 2 10.8 -9.8 0 0 0 0 1 5
1645 2 10.8 -9.6 0 0 0 0 1 5
1651 2 2 -9.4 0 0 0 0 1 5
1701 2 2 -9.2 0 0 0 0 1 5
1652 2 2.2 -9.4 0 0 0 0 1 5
1653 2 2.4 -9.4 0 0 0 0 1 5
1702 2 2.2 -9.2 0 0 0 0 1 5
1703 2 2.4 -9.2 0 0 0 0 1 5
1654 2 2.6 -9.4 0 0 0 0 1 5
1655 2 2.8 -9.4 0 0 0 0 1 5
1704 2 2.6 -9.2 0 0 0 0 1 5
1705 2 2.8 -9.2 0 0 0 0 1 5
1656 2 3 -9.4 0 0 0 0 1 5
1657 2 3.2 -9.4 0 0 0 0 1 5
1706 2 3 -9.2 0 0 0 0 1 5
1707 2 3.2 -9.2 0 0 0 0 1 5
1658 2 3.4 -9.4 0 0 0 0 1 5
1659 2 3.6 -9.4 0 0 0 0 1 5
1708 2 3.4 -9.2 0 0 0 0 1 5
1709 2 3.6 -9.2 0 0 0 0 1 5
1660 2 3.8 -9.4 0 0 0 0 1 5
1710 2 3.8 -9.2 0 0 0 0 1 5
1661 2 4 -9.4 0 0 0 0 1 5
1711 2 4 -9.2 0 0 0 0 1 5
1662 2 4.2 -9.4 0 0 0 0 1 5
1712 2 4.2 -9.2 0 0 0 0 1 5
1663 2 4.4 -9.4 0 0 0 0 1 5
1664 2 4.6 -9.4 0 0 0 0 1 5
1713 2 4.4 -9.2 0 0 0 0 1 5
1714 2 4.6 -9.2 0 0 0 0 1 5
1665 2 4.8 -9.4 0 0 0 0 1 5
1666 2 5 -9.4 0 0 0 0 1 5
1715 2 4.8 -9.2 0 0 0 0 1 5
1716 2 5 -9.2 0 0 0 0 1 5
1667 2 5.2 -9.4 0 0 0 0 1 5
1668 2 5.4 -9.4 0 0 0 0 1 5
1717 2 5.2 -9.2 0 0 0 0 1 5
1718 2 5.4 -9.2 0 0 0 0 1 5
1669 2 5.6 -9.4 0 0 0 0 1 5
1670 2 5.8 -9.4 0 0 0 0 1 5
1719 2 5.6 -9.2 0 0 0 0 1 5
1720 2 5.8 -9.2 0 0 0 0 1 5
1671 2 6 -9.4 0 0 0 0 1 5
1672 2 6.2 -9.4 0 0 0 0 1 5
1721 2 6 -9.2 0 0 0 0 1 5
1722 2 6.2 -9.2 0 0 0 0 1 5
1673 2 6.4 -9.4 0 0 0 0 1 5
1674 2 6.6 -9.4 0 0 0 0 1 5
1723 2 6.4 -9.2 0 0 0 0 1 5
1724 2 6.6 -9.2 0 0 0 0 1 5
1675 2 6.8 -9.4 0 0 0 0 1 5
1676 2 7 -9.4 0 0 0 0 1 5
1725 2 6.8 -9.2 0 0 0 0 1 5
1726 2 7 -9.2 0 0 0 0 1 5
1677 2 7.2 -9.4 0 0 0 0 1 5
1727 2 7.2 -9.2 0 0 0 0 1 5
1678 2 7.4 -9.4 0 0 0 0 1 5
1679 2 7.6 -9.4 0 0 0 0 1 5
1728 2 7.4 -9.2 0 0 0 0 1 5
1729 2 7.6 -9.2 0 0 0 0 1 5
1680 2 7.8 -9.4 0 0 0 0 1 5
1681 2 8 -9.4 0 0 0 0 1 5
1730 2 7.8 -9.2 0 0 0 0 1 5
1731 2 8 -9.2 0 0 0 0 1 5
1682 2 8.2 -9.4 0 0 0 0 1 5
1683 2 8.4 -9.4 0 0 0 0 1 5
1732 2 8.2 -9.2 0 0 0 0 1 5
1733 2 8.4 -9.2 0 0 0 0 1 5
1684 2 8.6 -9.4 0 0 0 0 1 5
1685 2 8.8 -9.4 0 0 0 0 1 5
1734 2 8.6 -9.2 0 0 0 0 1 5
1735 2 8.8 -9.2 0 0 0 0 1 5
1686 2 9 -9.4 0 0 0 0 1 5
1687 2 9.2 -9.4 0 0 0 0 1 5
1736 2 9 -9.2 0 0 0 0 1 5
1737 2 9.2 -9.2 0 0 0 0 1 5
1688 2 9.4 -9.4 0 0 0 0 1 5
1689 2 9.6 -9.4 0 0 0 0 1 5
1738 2 9.4 -9.2 0 0 0 0 1 5
1739 2 9.6 -9.2 0 0 0 0 1 5
1690 2 9.8 -9.4 0 0 0 0 1 5
1740 2 9.8 -9.2 0 0 0 0 1 5
1691 2 10 -9.4 0 0 0 0 1 5
1741 2 10 -9.2 0 0 0 0 1 5
1692 2 10.2 -9.4 0 0 0 0 1 5
1742 2 10.2 -9.2 0 0 0 0 1 5
1693 2 10.4 -9.4 0 0 0 0 1 5
1743 2 10.4 -9.2 0 0 0 0 1 5
1694 2 10.6 -9.4 0 0 0 0 1 5
1744 2 10.6 -9.2 0 0 0 0 1 5
1695 2 10.8 -9.4 0 0 0 0 1 5
1745 2 10.8 -9.2 0 0 0 0 1 5
1751 2 2 -9 0 0 0 0 1 5
1801 2 2 -8.8 0 0 0 0 1 5
1752 2 2.2 -9 0 0 0 0 1 5
1753 2 2.4 -9 0 0 0 0 1 5
1802 2 2.2 -8.8 0 0 0 0 1 5
1803 2 2.4 -8.8 0 0 0 0 1 5
1754 2 2.6 -9 0 0 0 0 1 5
1755 2 2.8 -9 0 0 0 0 1 5
1804 2 2.6 -8.8 0 0 0 0 1 5
1805 2 2.8 -8.8 0 0 0 0 1 5
1756 2 3 -9 0 0 0 0 1 5
1757 2 3.2 -9 0 0 0 0 1 5
1806 2 3 -8.8 0 0 0 0 1 5
1807 2 3.2 -8.8 0 0 0 0 1 5
1758 2 3.4 -9 0 0 0 0 1 5
1759 2 3.6 -9 0 0 0 0 1 5
1808 2 3.4 -8.8 0 0 0 0 1 5
1809 2 3.6 -8.8 0 0 0 0 1 5
1760 2 3.8 -9 0 0 0 0 1 5
1810 2 3.8 -8.8 0 0 0 0 1 5
1761 2 4 -9 0 0 0 0 1 5
1811 2 4 -8.8 0 0 0 0 1 5
1762 2 4.2 -9 0 0 0 0 1 5
1812 2 4.2 -8.8 0 0 0 0 1 5
1763 2 4.4 -9 0 0 0 0 1 5
1764 2 4.6 -9 0 0 0 0 1 5
1813 2 4.4 -8.8 0 0 0 0 1 5
1814 2 4.6 -8.8 0 0 0 0 1 5
1765 2 4.8 -9 0 0 0 0 1 5
1766 2 5 -9 0 0 0 0 1 5
1815 2 4.8 -8.8 0 0 0 0 1 5
1816 2 5 -8.8 0 0 0 0 1 5
1767 2 5.2 -9 0 0 0 0 1 5
1768 2 5.4 -9 0 0 0 0 1 5
1817 2 5.2 -8.8 0 0 0 0 1 5
1818 2 5.4 -8.8 0 0 0 0 1 5
1769 2 5.6 -9 0 0 0 0 1 5
1770 2 5.8 -9 0 0 0 0 1 5
1819 2 5.6 -8.8 0 0 0 0 1 5
1820 2 5.8 -8.8 0 0 0 0 1 5
1771 2 6 -9 0 0 0 0 1 5
1772 2 6.2 -9 0 0 0 0 1 5
1821 2 6 -8.8 0 0 0 0 1 5
1822 2 6.2 -8.8 0 0 0 0 1 5
1773 2 6.4 -9 0 0 0 0 1 5
1774 2 6.6 -9 0 0 0 0 1 5
1823 2 6.4 -8.8 0 0 0 0 1 5
1824 2 6.6 -8.8 0 0 0 0 1 5
1775 2 6.8 -9 0 0 0 0 1 5
1776 2 7 -9 0 0 0 0 1 5
1825 2 6.8 -8.8 0 0 0 0 1 5
1826 2 7 -8.8 0 0 0 0 1 5
1777 2 7.2 -9 0 0 0 0 1 5
1827 2 7.2 -8.8 0 0 0 0 1 5
1778 2 7.4 -9 0 0 0 0 1 5
1779 2 7.6 -9 0 0 0 0 1 5
1828 2 7.4 -8.8 0 0 0 0 1 5
1829 2 7.6 -8.8 0 0 0 0 1 5
1780 2 7.8 -9 0 0 0 0 1 5
1781 2 8 -9 0 0 0 0 1 5
1830 2 7.8 -8.8 0 0 0 0 1 5
1831 2 8 -8.8 0 0 0 0 1 5
1782 2 8.2 -9 0 0 0 0 1 5
1783 2 8.4 -9 0 0 0 0 1 5
1832 2 8.2 -8.8 0 0 0 0 1 5
1833 2 8.4 -8.8 0 0 0 0 1 5
1784 2 8.6 -9 0 0 0 0 1 5
1785 2 8.8 -9 0 0 0 0 1 5
1834 2 8.6 -8.8 0 0 0 0 1 5
1835 2 8.8 -8.8 0 0 0 0 1 5
1786 2 9 -9 0 0 0 0 1 5
1787 2 9.2 -9 0 0 0 0 1 5
1836 2 9 -8.8 0 0 0 0 1 5
1837 2 9.2 -8.8 0 0 0 0 1 5
1788 2 9.4 -9 0 0 0 0 1 5
1789 2 9.6 -9 0 0 0 0 1 5
1838 2 9.4 -8.8 0 0 0 0 1 5
1839 2 9.6 -8.8 0 0 0 0 1 5
1790 2 9.8 -9 0 0 0 0 1 5
1840 2 9.8 -8.8 0 0 0 0 1 5
1791 2 10 -9 0 0 0 0 1 5
1841 2 10 -8.8 0 0 0 0 1 5
1792 2 10.2 -9 0 0 0 0 1 5
1842 2 10.2 -8.8 0 0 0 0 1 5
1793 2 10.4 -9 0 0 0 0 1 5
1843 2 10.4 -8.8 0 0 0 0 1 5
1794 2 10.6 -9 0 0 0 0 1 5
1844 2 10.6 -8.8 0 0 0 0 1 5
1795 2 10.8 -9 0 0 0 0 1 5
1845 2 10.8 -8.8 0 0 0 0 1 5
1851 2 2 -8.6 0 0 0 0 1 5
1901 2 2 -8.4 0 0 0 0 1 5
1852 2 2.2 -8.6 0 0 0 0 1 5
1853 2 2.4 -8.6 0 0 0 0 1 5
1902 2 2.2 -8.4 0 0 0 0 1 5
1903 2 2.4 -8.4 0 0 0 0 1 5
1854 2 2.6 -8.6 0 0 0 0 1 5
1855 2 2.8 -8.6 0 0 0 0 1 5
1904 2 2.6 -8.4 0 0 0 0 1 5
1905 2 2.8 -8.4 0 0 0 0 1 5
1856 2 3 -8.6 0 0 0 0 1 5
1857 2 3.2 -8.6 0 0 0 0 1 5
1906 2 3 -8.4 0 0 0 0 1 5
1907 2 3.2 -8.4 0 0 0 0 1 5
1858 2 3.4 -8.6 0 0 0 0 1 5
1859 2 3.6 -8.6 0 0 0 0 1 5
1908 2 3.4 -8.4 0 0 0 0 1 5
1909 2 3.6 -8.4 0 0 0 0 1 5
1860 2 3.8 -8.6 0 0 0 0 1 5
1910 2 3.8 -8.4 0 0 0 0 1 5
1861 2 4 -8.6 0 0 0 0 1 5
1911 2 4 -8.4 0 0 0 0 1 5
1862 2 4.2 -8.6 0 0 0 0 1 5
1912 2 4.2 -8.4 0 0 0 0 1 5
1863 2 4.4 -8.6 0 0 0 0 1 5
1864 2 4.6 -8.6 0 0 0 0 1 5
1913 2 4.4 -8.4 0 0 0 0 1 5
1914 2 4.6 -8.4 0 0 0 0 1 5
1865 2 4.8 -8.6 0 0 0 0 1 5
1866 2 5 -8.6 0 0 0 0 1 5
1915 2 4.8 -8.4 0 0 0 0 1 5
1916 2 5 -8.4 0 0 0 0 1 5
1867 2 5.2 -8.6 0 0 0 0 1 5
1868 2 5.4 -8.6 0 0 0 0 1 5
1917 2 5.2 -8.4 0 0 0 0 1 5
1918 2 5.4 -8.4 0 0 0 0 1 5
1869 2 5.6 -8.6 0 0 0 0 1 5
1870 2 5.8 -8.6 0 0 0 0 1 5
1919 2 5.6 -8.4 0 0 0 0 1 5
1920 2 5.8 -8.4 0 0 0 0 1 5
1871 2 6 -8.6 0 0 0 0 1 5
1872 2 6.2 -8.6 0 0 0 0 1 5
1921 2 6 -8.4 0 0 0 0 1 5
1922 2 6.2 -8.4 0 0 0 0 1 5
1873 2 6.4 -8.6 0 0 0 0 1 5
1874 2 6.6 -8.6 0 0 0 0 1 5
1923 2 6.4 -8.4 0 0 0 0 1 5
1924 2 6.6 -8.4 0 0 0 0 1 5
1875 2 6.8 -8.6 0 0 0 0 1 5
1876 2 7 -8.6 0 0 0 0 1 5
1925 2 6.8 -8.4 0 0 0 0 1 5
1926 2 7 -8.4 0 0 0 0 1 5
1877 2 7.2 -8.6 0 0 0 0 1 5
1927 2 7.2 -8.4 0 0 0 0 1 5
1878 2 7.4 -8.6 0 0 0 0 1 5
1879 2 7.6 -8.6 0 0 0 0 1 5
1928 2 7.4 -8.4 0 0 0 0 1 5
1929 2 7.6 -8.4 0 0 0 0 1 5
1880 2 7.8 -8.6 0 0 0 0 1 5
1881 2 8 -8.6 0 0 0 0 1 5
1930 2 7.8 -8.4 0 0 0 0 1 5
1931 2 8 -8.4 0 0 0 0 1 5
1882 2 8.2 -8.6 0 0 0 0 1 5
1883 2 8.4 -8.6 0 0 0 0 1 5
1932 2 8.2 -8.4 0 0 0 0 1 5
1933 2 8.4 -8.4 0 0 0 0 1 5
1884 2 8.6 -8.6 0 0 0 0 1 5
1885 2 8.8 -8.6 0 0 0 0 1 5
1934 2 8.6 -8.4 0 0 0 0 1 5
1935 2 8.8 -8.4 0 0 0 0 1 5
1886 2 9 -8.6 0 0 0 0 1 5
1887 2 9.2 -8.6 0 0 0 0 1 5
1936 2 9 -8.4 0 0 0 0 1 5
1937 2 9.2 -8.4 0 0 0 0 1 5
1888 2 9.4 -8.6 0 0 0 0 1 5
1889 2 9.6 -8.6 0 0 0 0 1 5
1938 2 9.4 -8.4 0 0 0 0 1 5
1939 2 9.6 -8.4 0 0 0 0 1 5
1890 2 9.8 -8.6 0 0 0 0 1 5
1940 2 9.8 -8.4 0 0 0 0 1 5
1891 2 10 -8.6 0 0 0 0 1 5
1941 2 10 -8.4 0 0 0 0 1 5
1892 2 10.2 -8.6 0 0 0 0 1 5
1942 2 10.2 -8.4 0 0 0 0 1 5
1893 2 10.4 -8.6 0 0 0 0 1 5
1943 2 10.4 -8.4 0 0 0 0 1 5
1894 2 10.6 -8.6 0 0 0 0 1 5
1944 2 10.6 -8.4 0 0 0 0 1 5
1895 2 10.8 -8.6 0 0 0 0 1 5
1945 2 10.8 -8.4 0 0 0 0 1 5
1951 2 2 -8.2 0 0 0 0 1 5
2001 2 2 -8 0 0 0 0 1 5
1952 2 2.2 -8.2 0 0 0 0 1 5
1953 2 2.4 -8.2 0 0 0 0 1 5
2002 2 2.2 -8 0 0 0 0 1 5
2003 2 2.4 -8 0 0 0 0 1 5
1954 2 2.6 -8.2 0 0 0 0 1 5
1955 2 2.8 -8.2 0 0 0 0 1 5
2004 2 2.6 -8 0 0 0 0 1 5
2005 2 2.8 -8 0 0 0 0 1 5
1956 2 3 -8.2 0 0 0 0 1 5
1957 2 3.2 -8.2 0 0 0 0 1 5
2006 2 3 -8 0 0 0 0 1 5
2007 2 3.2 -8 0 0 0 0 1 5
1958 2 3.4 -8.2 0 0 0 0 1 5
1959 2 3.6 -8.2 0 0 0 0 1 5
2008 2 3.4 -8 0 0 0 0 1 5
2009 2 3.6 -8 0 0 0 0 1 5
1960 2 3.8 -8.2 0 0 0 0 1 5
2010 2 3.8 -8 0 0 0 0 1 5
1961 2 4 -8.2 0 0 0 0 1 5
2011 2 4 -8 0 0 0 0 1 5
1962 2 4.2 -8.2 0 0 0 0 1 5
2012 2 4.2 -8 0 0 0 0 1 5
1963 2 4.4 -8.2 0 0 0 0 1 5
1964 2 4.6 -8.2 0 0 0 0 1 5
2013 2 4.4 -8 0 0 0 0 1 5
2014 2 4.6 -8 0 0 0 0 1 5
1965 2 4.8 -8.2 0 0 0 0 1 5
1966 2 5 -8.2 0 0 0 0 1 5
2015 2 4.8 -8 0 0 0 0 1 5
2016 2 5 -8 0 0 0 0 1 5
1967 2 5.2 -8.2 0 0 0 0 1 5
1968 2 5.4 -8.2 0 0 0 0 1 5
2017 2 5.2 -8 0 0 0 0 1 5
2018 2 5.4 -8 0 0 0 0 1 5
1969 2 5.6 -8.2 0 0 0 0 1 5
1970 2 5.8 -8.2 0 0 0 0 1 5
2019 2 5.6 -8 0 0 0 0 1 5
2020 2 5.8 -8 0 0 0 0 1 5
1971 2 6 -8.2 0 0 0 0 1 5
1972 2 6.2 -8.2 0 0 0 0 1 5
2021 2 6 -8 0 0 0 0 1 5
2022 2 6.2 -8 0 0 0 0 1 5
1973 2 6.4 -8.2 0 0 0 0 1 5
1974 2 6.6 -8.2 0 0 0 0 1 5
2023 2 6.4 -8 0 0 0 0 1 5
2024 2 6.6 -8 0 0 0 0 1 5
1975 2 6.8 -8.2 0 0 0 0 1 5
1976 2 7 -8.2 0 0 0 0 1 5
2025 2 6.8 -8 0 0 0 0 1 5
2026 2 7 -8 0 0 0 0 1 5
1977 2 7.2 -8.2 0 0 0 0 1 5
2027 2 7.2 -8 0 0 0 0 1 5
1978 2 7.4 -8.2 0 0 0 0 1 5
1979 2 7.6 -8.2 0 0 0 0 1 5
2028 2 7.4 -8 0 0 0 0 1 5
2029 2 7.6 -8 0 0 0 0 1 5
1980 2 7.8 -8.2 0 0 0 0 1 5
1981 2 8 -8.2 0 0 0 0 1 5
2030 2 7.8 -8 0 0 0 0 1 5
2031 2 8 -8 0 0 0 0 1 5
1982 2 8.2 -8.2 0 0 0 0 1 5
1983 2 8.4 -8.2 0 0 0 0 1 5
2032 2 8.2 -8 0 0 0 0 1 5
2033 2 8.4 -8 0 0 0 0 1 5
1984 2 8.6 -8.2 0 0 0 0 1 5
1985 2 8.8 -8.2 0 0 0 0 1 5
2034 2 8.6 -8 0 0 0 0 1 5
2035 2 8.8 -8 0 0 0 0 1 5
1986 2 9 -8.2 0 0 0 0 1 5
1987 2 9.2 -8.2 0 0 0 0 1 5
2036 2 9 -8 0 0 0 0 1 5
2037 2 9.2 -8 0 0 0 0 1 5
1988 2 9.4 -8.2 0 0 0 0 1 5
1989 2 9.6 -8.2 0 0 0 0 1 5
2038 2 9.4 -8 0 0 0 0 1 5
2039 2 9.6 -8 0 0 0 0 1 5
1990 2 9.8 -8.2 0 0 0 0 1 5
2040 2 9.8 -8 0 0 0 0 1 5
1991 2 10 -8.2 0 0 0 0 1 5
2041 2 10 -8 0 0 0 0 1 5
1992 2 10.2 -8.2 0 0 0 0 1 5
2042 2 10.2 -8 0 0 0 0 1 5
1993 2 10.4 -8.2 0 0 0 0 1 5
2043 2 10.4 -8 0 0 0 0 1 5
1994 2 10.6 -8.2 0 0 0 0 1 5
2044 2 10.6 -8 0 0 0 0 1 5
1995 2 10.8 -8.2 0 0 0 0 1 5
2045 2 10.8 -8 0 0 0 0 1 5
2051 2 2 -7.8 0 0 0 0 1 5
2101 2 2 -7.6 0 0 0 0 1 5
2052 2 2.2 -7.8 0 0 0 0 1 5
2053 2 2.4 -7.8 0 0 0 0 1 5
2102 2 2.2 -7.6 0 0 0 0 1 5
2103 2 2.4 -7.6 0 0 0 0 1 5
2054 2 2.6 -7.8 0 0 0 0 1 5
2055 2 2.8 -7.8 0 0 0 0 1 5
2104 2 2.6 -7.6 0 0 0 0 1 5
2105 2 2.8 -7.6 0 0 0 0 1 5
2056 2 3 -7.8 0 0 0 0 1 5
2057 2 3.2 -7.8 0 0 0 0 1 5
2106 2 3 -7.6 0 0 0 0 1 5
2107 2 3.2 -7.6 0 0 0 0 1 5
2058 2 3.4 -7.8 0 0 0 0 1 5
2059 2 3.6 -7.8 0 0 0 0 1 5
2108 2 3.4 -7.6 0 0 0 0 1 5
2109 2 3.6 -7.6 0 0 0 0 1 5
2060 2 3.8 -7.8 0 0 0 0 1 5
2110 2 3.8 -7.6 0 0 0 0 1 5
2061 2 4 -7.8 0 0 0 0 1 5
2111 2 4 -7.6 0 0 0 0 1 5
2062 2 4.2 -7.8 0 0 0 0 1 5
2112 2 4.2 -7.6 0 0 0 0 1 5
2063 2 4.4 -7.8 0 0 0 0 1 5
2064 2 4.6 -7.8 0 0 0 0 1 5
2113 2 4.4 -7.6 0 0 0 0 1 5
2114 2 4.6 -7.6 0 0 0 0 1 5
2065 2 4.8 -7.8 0 0 0 0 1 5
2066 2 5 -7.8 0 0 0 0 1 5
2115 2 4.8 -7.6 0 0 0 0 1 5
2116 2 5 -7.6 0 0 0 0 1 5
2067 2 5.2 -7.8 0 0 0 0 1 5
2068 2 5.4 -7.8 0 0 0 0 1 5
2117 2 5.2 -7.6 0 0 0 0 1 5
2118 2 5.4 -7.6 0 0 0 0 1 5
2069 2 5.6 -7.8 0 0 0 0 1 5
2070 2 5.8 -7.8 0 0 0 0 1 5
2119 2 5.6 -7.6 0 0 0 0 1 5
2120 2 5.8 -7.6 0 0 0 0 1 5
2071 2 6 -7.8 0 0 0 0 1 5
2072 2 6.2 -7.8 0 0 0 0 1 5
2121 2 6 -7.6 0 0 0 0 1 5
2122 2 6.2 -7.6 0 0 0 0 1 5
2073 2 6.4 -7.8 0 0 0 0 1 5
2074 2 6.6 -7.8 0 0 0 0 1 5
2123 2 6.4 -7.6 0 0 0 0 1 5
2124 2 6.6 -7.6 0 0 0 0 1 5
2075 2 6.8 -7.8 0 0 0 0 1 5
2076 2 7 -7.8 0 0 0 0 1 5
2125 2 6.8 -7.6 0 0 0 0 1 5
2126 2 7 -7.6 0 0 0 0 1 5
2077 2 7.2 -7.8 0 0 0 0 1 5
2127 2 7.2 -7.6 0 0 0 0 1 5
2078 2 7.4 -7.8 0 0 0 0 1 5
2079 2 7.6 -7.8 0 0 0 0 1 5
2128 2 7.4 -7.6 0 0 0 0 1 5
2129 2 7.6 -7.6 0 0 0 0 1 5
2080 2 7.8 -7.8 0 0 0 0 1 5
2081 2 8 -7.8 0 0 0 0 1 5
2130 2 7.8 -7.6 0 0 0 0 1 5
2131 2 8 -7.6 0 0 0 0 1 5
2082 2 8.2 -7.8 0 0 0 0 1 5
2083 2 8.4 -7.8 0 0 0 0 1 5
2132 2 8.2 -7.6 0 0 0 0 1 5
2133 2 8.4 -7.6 0 0 0 0 1 5
2084 2 8.6 -7.8 0 0 0 0 1 5
2085 2 8.8 -7.8 0 0 0 0 1 5
2134 2 8.6 -7.6 0 0 0 0 1 5
2135 2 8.8 -7.6 0 0 0 0 1 5
2086 2 9 -7.8 0 0 0 0 1 5
2087 2 9.2 -7.8 0 0 0 0 1 5
2136 2 9 -7.6 0 0 0 0 1 5
2137 2 9.2 -7.6 0 0 0 0 1 5
2088 2 9.4 -7.8 0 0 0 0 1 5
2089 2 9.6 -7.8 0 0 0 0 1 5
2138 2 9.4 -7.6 0 0 0 0 1 5
2139 2 9.6 -7.6 0 0 0 0 1 5
2090 2 9.8 -7.8 0 0 0 0 1 5
2140 2 9.8 -7.6 0 0 0 0 1 5
2091 2 10 -7.8 0 0 0 0 1 5
2141 2 10 -7.6 0 0 0 0 1 5
2092 2 10.2 -7.8 0 0 0 0 1 5
2142 2 10.2 -7.6 0 0 0 0 1 5
2093 2 10.4 -7.8 0 0 0 0 1 5
2143 2 10.4 -7.6 0 0 0 0 1 5
2094 2 10.6 -7.8 0 0 0 0 1 5
2144 2 10.6 -7.6 0 0 0 0 1 5
2095 2 10.8 -7.8 0 0 0 0 1 5
2145 2 10.8 -7.6 0 0 0 0 1 5
2151 2 2 -7.4 0 0 0 0 1.00106 5
2201 2 2 -7.2 0 0 0 0 0.999674 5
2152 2 2.2 -7.4 0 0 0 0 0.99889 5
2153 2 2.4 -7.4 0 0 0 0 0.999204 5
2202 2 2.2 -7.2 0 0 0 0 0.999381 5
2203 2 2.4 -7.2 0 0 0 0 1.00047 5
2154 2 2.6 -7.4 0 0 0 0 0.999717 5
2155 2 2.8 -7.4 0 0 0 0 1.002 5
2204 2 2.6 -7.2 0 0 0 0 0.999787 5
2205 2 2.8 -7.2 0 0 0 0 1.00175 5
2156 2 3 -7.4 0 0 0 0 0.998579 5
2157 2 3.2 -7.4 0 0 0 0 0.998276 5
2206 2 3 -7.2 0 0 0 0 0.999676 5
2207 2 3.2 -7.2 0 0 0 0 0.99825 5
2158 2 3.4 -7.4 0 0 0 0 1.00826 5
2159 2 3.6 -7.4 0 0 0 0 0.999012 5
2208 2 3.4 -7.2 0 0 0 0 1.00169 5
2209 2 3.6 -7.2 0 0 0 0 1.0015 5
2160 2 3.8 -7.4 0 0 0 0 0.998254 5
2210 2 3.8 -7.2 0 0 0 0 1.00295 5
2161 2 4 -7.4 0 0 0 0 1.02097 5
2211 2 4 -7.2 0 0 0 0 1.01182 5
2162 2 4.2 -7.4 0 0 0 0 1.02371 5
2212 2 4.2 -7.2 0 0 0 0 1.01947 5
2163 2 4.4 -7.4 0 0 0 0 1.02046 5
2164 2 4.6 -7.4 0 0 0 0 1.01705 5
2213 2 4.4 -7.2 0 0 0 0 1.02136 5
2214 2 4.6 -7.2 0 0 0 0 1.01755 5
2165 2 4.8 -7.4 0 0 0 0 1.01626 5
2166 2 5 -7.4 0 0 0 0 1.01593 5
2215 2 4.8 -7.2 0 0 0 0 1.0166 5
2216 2 5 -7.2 0 0 0 0 1.01629 5
2167 2 5.2 -7.4 0 0 0 0 1.01582 5
2168 2 5.4 -7.4 0 0 0 0 1.01579 5
2217 2 5.2 -7.2 0 0 0 0 1.01618 5
2218 2 5.4 -7.2 0 0 0 0 1.01615 5
2169 2 5.6 -7.4 0 0 0 0 1.01576 5
2170 2 5.8 -7.4 0 0 0 0 1.01533 5
2219 2 5.6 -7.2 0 0 0 0 1.01602 5
2220 2 5.8 -7.2 0 0 0 0 1.01566 5
2171 2 6 -7.4 0 0 0 0 1.01537 5
2172 2 6.2 -7.4 0 0 0 0 1.01538 5
2221 2 6 -7.2 0 0 0 0 1.0156 5
2222 2 6.2 -7.2 0 0 0 0 1.01555 5
2173 2 6.4 -7.4 0 0 0 0 1.01481 5
2174 2 6.6 -7.4 0 0 0 0 1.01489 5
2223 2 6.4 -7.2 0 0 0 0 1.01529 5
2224 2 6.6 -7.2 0 0 0 0 1.01519 5
2175 2 6.8 -7.4 0 0 0 0 1.01497 5
2176 2 7 -7.4 0 0 0 0 1.01498 5
2225 2 6.8 -7.2 0 0 0 0 1.01524 5
2226 2 7 -7.2 0 0 0 0 1.01516 5
2177 2 7.2 -7.4 0 0 0 0 1.0149 5
2227 2 7.2 -7.2 0 0 0 0 1.01513 5
2178 2 7.4 -7.4 0 0 0 0 1.01489 5
2179 2 7.6 -7.4 0 0 0 0 1.01487 5
2228 2 7.4 -7.2 0 0 0 0 1.01507 5
2229 2 7.6 -7.2 0 0 0 0 1.01505 5
2180 2 7.8 -7.4 0 0 0 0 1.01482 5
2181 2 8 -7.4 0 0 0 0 1.01483 5
2230 2 7.8 -7.2 0 0 0 0 1.01501 5
2231 2 8 -7.2 0 0 0 0 1.01496 5
2182 2 8.2 -7.4 0 0 0 0 1.01479 5
2183 2 8.4 -7.4 0 0 0 0 1.01476 5
2232 2 8.2 -7.2 0 0 0 0 1.01492 5
2233 2 8.4 -7.2 0 0 0 0 1.01489 5
2184 2 8.6 -7.4 0 0 0 0 1.01476 5
2185 2 8.8 -7.4 0 0 0 0 1.01475 5
2234 2 8.6 -7.2 0 0 0 0 1.01487 5
2235 2 8.8 -7.2 0 0 0 0 1.01484 5
2186 2 9 -7.4 0 0 0 0 1.01469 5
2187 2 9.2 -7.4 0 0 0 0 1.01471 5
2236 2 9 -7.2 0 0 0 0 1.01481 5
2237 2 9.2 -7.2 0 0 0 0 1.01484 5
2188 2 9.4 -7.4 0 0 0 0 1.01474 5
2189 2 9.6 -7.4 0 0 0 0 1.01475 5
2238 2 9.4 -7.2 0 0 0 0 1.01484 5
2239 2 9.6 -7.2 0 0 0 0 1.01486 5
2190 2 9.8 -7.4 0 0 0 0 1.01477 5
2240 2 9.8 -7.2 0 0 0 0 1.01487 5
2191 2 10 -7.4 0 0 0 0 1.01479 5
2241 2 10 -7.2 0 0 0 0 1.0149 5
2192 2 10.2 -7.4 0 0 0 0 1.01481 5
2242 2 10.2 -7.2 0 0 0 0 1.01492 5
2193 2 10.4 -7.4 0 0 0 0 1.01484 5
2243 2 10.4 -7.2 0 0 0 0 1.01494 5
2194 2 10.6 -7.4 0 0 0 0 1.01487 5
2244 2 10.6 -7.2 0 0 0 0 1.01497 5
2195 2 10.8 -7.4 0 0 0 0 1.01488 5
2245 2 10.8 -7.2 0 0 0 0 1.01499 5
12206 1 1.60108 -6.74262 0.02 0 -0.000632509 -0.000423137 1 2
12207 1 1.81021 -6.74969 0.02 0 -0.00238895 -0.000639795 1 2
12208 1 2.01706 -6.75288 0.02 0 -0.0039375 -0.000543065 1 2
12209 1 2.20314 -6.71041 0.02 0 -0.00195566 -0.000210224 1 2
12210 1 2.38652 -6.75366 0.02 0 -0.00314723 -0.000426198 1 2
2251 2 2 -7 0 0 0 0 1.00055 5
12211 1 2.57833 -6.73394 0.02 0 -0.00237901 -0.000375621 1 2
12212 1 2.77535 -6.7464 0.02 0 -0.00284398 -0.000463659 1 2
2252 2 2.2 -7 0 0 0 0 0.999589 5
2253 2 2.4 -7 0 0 0 0 1.00018 5
12213 1 2.9752 -6.76166 0.02 0 -0.00309156 -0.000383914 1 2
12214 1 3.17653 -6.74699 0.02 0 -0.00283538 -0.00036722 1 2
2254 2 2.6 -7 0 0 0 0 1 5
2255 2 2.8 -7 0 0 0 0 1.00088 5
12215 1 3.37023 -6.72997 0.02 0 -0.00245259 -0.000359598 1 2
12216 1 3.56574 -6.76181 0.02 0 -0.00304036 -0.000373734 1 2
2256 2 3 -7 0 0 0 0 0.999833 5
2257 2 3.2 -7 0 0 0 0 0.999186 5
11540 1 3.77579 -6.76109 0.02 0 -0.00457905 -0.000262826 1 2
11543 1 3.98666 -6.74254 0.02 0 -0.00917865 0.000843281 1 2
2258 2 3.4 -7 0 0 0 0 1.00081 5
2259 2 3.6 -7 0 0 0 0 1.00135 5
2260 2 3.8 -7 0 0 0 0 1.00384 5
11544 1 4.06632 -6.77564 0.00871087 0.000115544 -4.3601e-05 4.37556e-05 1.02375 0
11546 1 4.21155 -6.76134 0.00691515 0.000103063 -3.34739e-05 2.73995e-05 1.02791 0
11547 1 4.32955 -6.6524 0.00972003 0.00159695 -1.1198e-05 5.14592e-06 1.02314 0
2261 2 4 -7 0 0 0 0 1.0104 5
2262 2 4.2 -7 0 0 0 0 1.01812 5
11548 1 4.45079 -6.725 0.00734915 0.000507964 1.18554e-05 -5.6348e-07 1.02036 0
11550 1 4.58619 -6.60048 0.0101333 0.00154219 1.3854e-05 6.04413e-06 1.01811 0
11552 1 4.60979 -6.77373 0.00534121 0.000295434 8.22223e-06 1.19402e-06 1.01835 0
2263 2 4.4 -7 0 0 0 0 1.02142 5
2264 2 4.6 -7 0 0 0 0 1.01826 5
10852 1 4.87391 -6.5973 0.00829007 0.00104718 3.64835e-06 7.49618e-06 1.01717 0
10855 1 4.79283 -6.76321 0.00464533 0.000223032 3.35754e-06 2.71874e-06 1.0177 0
10858 1 4.98087 -6.73507 0.00448885 0.000182749 1.1522e-06 3.4301e-06 1.01738 0
10861 1 5.16049 -6.74776 0.00363587 3.89377e-05 5.56209e-07 2.30511e-06 1.01709 0
2265 2 4.8 -7 0 0 0 0 1.01702 5
2266 2 5 -7 0 0 0 0 1.01669 5
10163 1 5.37539 -6.64018 0.00526134 0.000330471 1.74994e-06 2.1798e-06 1.01644 0
10169 1 5.37962 -6.79659 0.00257379 -9.99632e-05 8.96882e-07 7.01693e-07 1.01691 0
2267 2 5.2 -7 0 0 0 0 1.01654 5
2268 2 5.4 -7 0 0 0 0 1.01643 5
10172 1 5.57404 -6.74316 0.00306759 2.33755e-05 2.15624e-06 2.19174e-07 1.01651 0
3105 1 5.73124 -6.67137 0.00401966 0.000141711 3.32592e-06 5.58895e-08 1.01604 0
3109 1 5.86221 -6.73328 0.00278542 -4.25365e-05 3.16051e-06 -5.63739e-07 1.01616 0
2269 2 5.6 -7 0 0 0 0 1.01619 5
2270 2 5.8 -7 0 0 0 0 1.01588 5
3113 1 6.01613 -6.7441 0.0024611 -7.29486e-05 3.13449e-06 -7.77859e-07 1.01615 0
3115 1 6.18263 -6.74913 0.00227872 -7.6926e-05 3.32111e-06 -9.45737e-07 1.01606 0
3116 1 6.35797 -6.72309 0.00244815 -4.92002e-05 3.6868e-06 -1.03095e-06 1.01576 0
2271 2 6 -7 0 0 0 0 1.01581 5
2272 2 6.2 -7 0 0 0 0 1.01573 5
3117 1 6.52631 -6.68544 0.00277117 1.99966e-06 4.0437e-06 -1.0619e-06 1.01549 0
3118 1 6.8165 -6.66914 0.00272578 5.03733e-05 3.61714e-06 -7.87199e-07 1.0154 0
3119 1 6.64951 -6.7971 0.00157221 -0.000180189 2.46676e-06 -7.95805e-07 1.01579 0
2273 2 6.4 -7 0 0 0 0 1.01552 5
2274 2 6.6 -7 0 0 0 0 1.01543 5
3120 1 7.00417 -6.59894 0.00339411 9.90681e-05 3.84369e-06 -7.09898e-07 1.01524 0
3121 1 6.99295 -6.76946 0.00161866 -9.8729e-05 2.10403e-06 -4.27978e-07 1.01554 0
3123 1 7.19539 -6.77946 0.00148366 -0.00013798 1.58691e-06 -2.80065e-07 1.01558 0
2275 2 6.8 -7 0 0 0 0 1.01542 5
2276 2 7 -7 0 0 0 0 1.01533 5
3122 1 7.29985 -6.61939 0.00294988 6.31148e-05 2.90284e-06 -3.44401e-07 1.01521 0
3124 1 7.43769 -6.66671 0.00237088 1.37176e-05 2.17622e-06 -2.30809e-07 1.01518 0
3125 1 7.55833 -6.76255 0.00146622 -0.000105505 1.45286e-06 -1.62476e-07 1.01542 0
2277 2 7.2 -7 0 0 0 0 1.0153 5
2278 2 7.4 -7 0 0 0 0 1.01522 5
2279 2 7.6 -7 0 0 0 0 1.01518 5
3126 1 7.74377 -6.71311 0.00181286 -4.62697e-05 1.79971e-06 -2.36298e-07 1.01525 0
3127 1 7.91314 -6.74197 0.00151913 -8.97923e-05 1.7152e-06 -3.27452e-07 1.0153 0
2280 2 7.8 -7 0 0 0 0 1.01513 5
2281 2 8 -7 0 0 0 0 1.01508 5
3128 1 8.09452 -6.71518 0.00168379 -6.40022e-05 2.08652e-06 -5.9276e-07 1.0152 0
3129 1 8.2637 -6.72786 0.00153083 -8.05157e-05 2.20938e-06 -7.81444e-07 1.0152 0
3130 1 8.44101 -6.72618 0.00148741 -8.39933e-05 2.32988e-06 -1.01567e-06 1.01518 0
2282 2 8.2 -7 0 0 0 0 1.01504 5
2283 2 8.4 -7 0 0 0 0 1.01501 5
3131 1 8.61989 -6.7289 0.00141973 -8.1217e-05 2.41575e-06 -1.19401e-06 1.01515 0
3132 1 8.79261 -6.70611 0.00155295 -6.1555e-05 2.42793e-06 -1.47975e-06 1.01507 0
2284 2 8.6 -7 0 0 0 0 1.01499 5
2285 2 8.8 -7 0 0 0 0 1.01494 5
3133 1 8.96574 -6.72016 0.00138976 -7.39239e-05 2.10922e-06 -1.52882e-06 1.01506 0
3134 1 9.1437 -6.74624 0.00120542 -8.7922e-05 1.61918e-06 -1.40553e-06 1.01511 0
2286 2 9 -7 0 0 0 0 1.01493 5
2287 2 9.2 -7 0 0 0 0 1.01495 5
3135 1 9.34326 -6.73382 0.00126291 -6.89024e-05 9.69376e-07 -1.37532e-06 1.01508 0
3136 1 9.5381 -6.73681 0.00122292 -6.94579e-05 2.03784e-07 -1.17328e-06 1.0151 0
3137 1 9.73182 -6.72491 0.00128575 -5.67274e-05 -6.4931e-07 -9.78823e-07 1.01507 0
2288 2 9.4 -7 0 0 0 0 1.01495 5
2289 2 9.6 -7 0 0 0 0 1.01495 5
3138 1 9.92132 -6.7349 0.00120958 -6.67821e-05 -1.35515e-06 -6.34595e-07 1.01512 0
3139 1 10.1156 -6.72047 0.00129459 -5.292e-05 -2.18072e-06 -4.1037e-07 1.0151 0
2290 2 9.8 -7 0 0 0 0 1.01496 5
2291 2 10 -7 0 0 0 0 1.01499 5
3140 1 10.3041 -6.73452 0.00120229 -6.96397e-05 -2.61969e-06 -1.0387e-07 1.01517 0
3141 1 10.5027 -6.72887 0.00123569 -6.35438e-05 -3.066e-06 1.20708e-07 1.01517 0
2292 2 10.2 -7 0 0 0 0 1.01501 5
2293 2 10.4 -7 0 0 0 0 1.01504 5
3142 1 10.7014 -6.73658 0.0011897 -7.52012e-05 -3.20399e-06 3.15537e-07 1.01521 0
3143 1 10.906 -6.73522 0.00119718 -7.82047e-05 -3.20102e-06 4.40678e-07 1.01524 0
2294 2 10.6 -7 0 0 0 0 1.01506 5
2295 2 10.8 -7 0 0 0 0 1.01509 5
12238 1 1.6034 -6.55507 0.02 0 5.38943e-06 5.49387e-06 1 2
12239 1 1.62014 -6.35665 0.02 0 4.0132e-06 4.24127e-06 1 2
12240 1 1.8051 -6.56943 0.02 0 -1.12955e-05 6.45044e-05 1 2
12241 1 2.00506 -6.56401 0.02 0 4.35268e-05 0.000326054 1 2
12242 1 1.81181 -6.3857 0.02 0 1.15387e-05 1.97707e-05 1 2
12243 1 2.00794 -6.37232 0.02 0 4.19262e-05 7.20461e-05 1 2
12244 1 1.82052 -6.19172 0.02 0 1.75928e-07 1.18836e-06 1 2
12245 1 2.00945 -6.17392 0.02 0 1.2876e-06 3.05689e-06 1 2
12246 1 2.20173 -6.524 0.02 0 0.000230121 0.000390456 1 2
12247 1 2.19922 -6.33056 0.02 0 5.04197e-05 7.68823e-05 1 2
12248 1 2.39484 -6.55369 0.02 0 0.000277111 0.000466486 1 2
12250 1 2.38848 -6.35098 0.02 0 7.99636e-05 0.000116912 1 2
12249 1 2.58841 -6.54807 0.02 0 0.000198306 0.000432567 1 2
12251 1 2.5768 -6.35466 0.02 0 7.63746e-05 9.89162e-05 1 2
12253 1 2.78184 -6.55498 0.02 0 0.000173953 0.000391553 1 2
12254 1 2.77027 -6.35942 0.02 0 8.13923e-05 0.000108824 1 2
12252 1 2.97589 -6.57616 0.02 0 0.000101654 0.000378964 1 2
12255 1 2.97314 -6.39112 0.02 0 0.000111756 0.00013439 1 2
12256 1 2.95287 -6.20108 0.02 0 8.36192e-06 1.58133e-05 1 2
12258 1 3.17272 -6.55781 0.02 0 0.000155058 0.000354029 1 2
12259 1 3.17674 -6.36809 0.02 0 8.71075e-05 0.000110675 1 2
12261 1 3.14596 -6.17154 0.02 0 4.88175e-06 1.03118e-05 1 2
12257 1 3.37549 -6.55307 0.02 0 0.000169886 0.000391689 1 2
12260 1 3.39037 -6.37519 0.02 0 8.97489e-05 0.000136722 1 2
12262 1 3.34275 -6.19546 0.02 0 7.67101e-06 1.48258e-05 1 2
12263 1 3.58518 -6.57766 0.02 0 5.38419e-05 0.000506156 1 2
12264 1 3.59695 -6.39505 0.02 0 3.70344e-05 0.000173289 1 2
12265 1 3.55978 -6.20974 0.02 0 -2.68463e-05 1.65782e-05 1 2
11553 1 3.79612 -6.57974 0.02 0 -0.00125763 0.000615077 1 2
11554 1 3.79777 -6.39966 0.02 0 -0.00108448 0.000176177 1 2
11555 1 3.78401 -6.21768 0.02 0 -0.00101148 3.20669e-06 1 2
11556 1 3.99935 -6.56727 0.02 0 -0.00307915 0.000586518 1.00668 2
11558 1 3.99952 -6.38993 0.02 0 -0.00412013 0.000660855 1 2
11560 1 3.99969 -6.21134 0.02 0 -0.00275118 0.000324584 1.00638 2
11557 1 4.12559 -6.57387 0.0130148 0.00263801 -0.00033759 1.12839e-05 1.02238 0
11559 1 4.1254 -6.37051 0.0140134 0.00226576 -0.000112735 6.85615e-05 1.02078 0
11561 1 4.14442 -6.18383 0.0141598 0.00199108 -0.000249001 -8.64129e-06 1.02038 0
11565 1 4.28782 -6.33474 0.0135933 0.00336933 -1.29044e-05 2.50759e-05 1.02267 0
11562 1 4.2571 -6.50724 0.0124276 0.00298912 -5.80875e-05 -9.39148e-06 1.02406 0
11564 1 4.30443 -6.15605 0.0143921 0.00337649 -1.2746e-05 1.64473e-05 1.02123 0
11563 1 4.42478 -6.49257 0.0129416 0.0026921 1.61446e-05 5.29484e-06 1.02074 0
11566 1 4.45062 -6.28394 0.0148841 0.00352486 2.2613e-05 1.58919e-05 1.01952 0
11567 1 4.46442 -6.09022 0.0157883 0.00391296 2.38866e-05 2.33262e-05 1.01853 0
11551 1 4.73815 -6.53957 0.0104798 0.00165319 8.45876e-06 9.07873e-06 1.0175 0
11569 1 4.57001 -6.42126 0.0134518 0.00270411 1.98747e-05 1.33082e-05 1.01842 0
11570 1 4.60785 -6.20861 0.0151406 0.0035993 1.60966e-05 2.08547e-05 1.01787 0
11568 1 4.71446 -6.35189 0.0134408 0.00278919 1.05531e-05 1.52307e-05 1.01779 0
11572 1 4.77673 -6.16157 0.0147479 0.00349894 4.85409e-06 2.07462e-05 1.01759 0
11575 1 4.86514 -6.35255 0.0125519 0.00235297 3.43684e-06 1.40267e-05 1.01766 0
10856 1 5.12299 -6.58425 0.00731693 0.000743147 1.09814e-06 5.56062e-06 1.01692 0
10853 1 4.99934 -6.48818 0.00977938 0.00135836 1.65376e-06 8.91427e-06 1.01733 0
11576 1 4.933 -6.12446 0.0143251 0.0032618 -1.61662e-06 1.91696e-05 1.01751 0
11574 1 5.01228 -6.30464 0.0123092 0.00222323 8.45137e-08 1.29141e-05 1.01751 0
10863 1 5.1559 -6.24098 0.0123274 0.00218253 -1.67751e-06 1.15136e-05 1.01729 0
10854 1 5.20679 -6.4005 0.0101234 0.00137299 3.12318e-07 7.68398e-06 1.01709 0
10866 1 5.30647 -6.1733 0.0123773 0.00215625 -2.09977e-06 9.35012e-06 1.01701 0
10165 1 5.58191 -6.57596 0.00595201 0.000388027 3.4178e-06 1.22634e-06 1.01622 0
10857 1 5.29903 -6.52743 0.00771631 0.000729638 1.39434e-06 4.3517e-06 1.01672 0
10872 1 5.38525 -6.33236 0.0102783 0.00135916 9.3251e-07 5.61595e-06 1.01683 0
10871 1 5.54039 -6.23786 0.0107857 0.00150263 1.87124e-06 3.94673e-06 1.01665 0
10859 1 5.50471 -6.44224 0.00832743 0.000838098 2.88082e-06 2.78257e-06 1.01652 0
10877 1 5.7016 -6.24875 0.0100826 0.00126671 4.13499e-06 1.6274e-06 1.01645 0
10860 1 5.69946 -6.42098 0.00797575 0.000748515 4.76642e-06 8.75556e-07 1.01631 0
10880 1 5.97274 -6.15646 0.0101537 0.00128125 6.76723e-06 -6.9856e-07 1.01622 0
10862 1 5.88494 -6.33494 0.0085085 0.000864149 6.3749e-06 -3.75401e-07 1.0162 0
10167 1 5.8393 -6.52024 0.0061903 0.000457312 5.54407e-06 -3.29098e-07 1.01604 0
10166 1 6.01062 -6.55047 0.00535326 0.000325326 5.98753e-06 -1.06714e-06 1.01587 0
10883 1 6.1339 -6.14643 0.00977103 0.00115587 7.95357e-06 -1.5724e-06 1.01609 0