ITEM: TIMESTEP
43000
ITEM: NUMBER OF ATOMS
11663
ITEM: BOX BOUNDS ff ff pp
0.0000000000000000e+00 2.2000000000000000e+01
-1.0000000000000000e+01 1.0000000000000000e+01
-2.0000000000000000e-02 2.0000000000000000e-02
ITEM: ATOMS id type x y vx vy fx fy c_den c_phase
1501 2 2 -10 0 0 0 0 1 5
1551 2 2 -9.8 0 0 0 0 1 5
1601 2 2 -9.6 0 0 0 0 1 5
1502 2 2.2 -10 0 0 0 0 1 5
1503 2 2.4 -10 0 0 0 0 1 5
1552 2 2.2 -9.8 0 0 0 0 1 5
1553 2 2.4 -9.8 0 0 0 0 1 5
1602 2 2.2 -9.6 0 0 0 0 1 5
1603 2 2.4 -9.6 0 0 0 0 1 5
1504 2 2.6 -10 0 0 0 0 1 5
1505 2 2.8 -10 0 0 0 0 1 5
1554 2 2.6 -9.8 0 0 0 0 1 5
1555 2 2.8 -9.8 0 0 0 0 1 5
1604 2 2.6 -9.6 0 0 0 0 1 5
1605 2 2.8 -9.6 0 0 0 0 1 5
1506 2 3 -10 0 0 0 0 1 5
1507 2 3.2 -10 0 0 0 0 1 5
1556 2 3 -9.8 0 0 0 0 1 5
1557 2 3.2 -9.8 0 0 0 0 1 5
1606 2 3 -9.6 0 0 0 0 1 5
1607 2 3.2 -9.6 0 0 0 0 1 5
1508 2 3.4 -10 0 0 0 0 1 5
1509 2 3.6 -10 0 0 0 0 1 5
1558 2 3.4 -9.8 0 0 0 0 1 5
1559 2 3.6 -9.8 0 0 0 0 1 5
1608 2 3.4 -9.6 0 0 0 0 1 5
1609 2 3.6 -9.6 0 0 0 0 1 5
1510 2 3.8 -10 0 0 0 0 1 5
1560 2 3.8 -9.8 0 0 0 0 1 5
1610 2 3.8 -9.6 0 0 0 0 1 5
1511 2 4 -10 0 0 0 0 1 5
1561 2 4 -9.8 0 0 0 0 1 5
1611 2 4 -9.6 0 0 0 0 1 5
1512 2 4.2 -10 0 0 0 0 1 5
1562 2 4.2 -9.8 0 0 0 0 1 5
1612 2 4.2 -9.6 0 0 0 0 1 5
1513 2 4.4 -10 0 0 0 0 1 5
1514 2 4.6 -10 0 0 0 0 1 5
1563 2 4.4 -9.8 0 0 0 0 1 5
1564 2 4.6 -9.8 0 0 0 0 1 5
1613 2 4.4 -9.6 0 0 0 0 1 5
1614 2 4.6 -9.6 0 0 0 0 1 5
1515 2 4.8 -10 0 0 0 0 1 5
1516 2 5 -10 0 0 0 0 1 5
1565 2 4.8 -9.8 0 0 0 0 1 5
1566 2 5 -9.8 0 0 0 0 1 5
1615 2 4.8 -9.6 0 0 0 0 1 5
1616 2 5 -9.6 0 0 0 0 1 5
1517 2 5.2 -10 0 0 0 0 1 5
1518 2 5.4 -10 0 0 0 0 1 5
1567 2 5.2 -9.8 0 0 0 0 1 5
1568 2 5.4 -9.8 0 0 0 0 1 5
1617 2 5.2 -9.6 0 0 0 0 1 5
1618 2 5.4 -9.6 0 0 0 0 1 5
1519 2 5.6 -10 0 0 0 0 1 5
1520 2 5.8 -10 0 0 0 0 1 5
1569 2 5.6 -9.8 0 0 0 0 1 5
1570 2 5.8 -9.8 0 0 0 0 1 5
1619 2 5.6 -9.6 0 0 0 0 1 5
1620 2 5.8 -9.6 0 0 0 0 1 5
1521 2 6 -10 0 0 0 0 1 5
1522 2 6.2 -10 0 0 0 0 1 5
1571 2 6 -9.8 0 0 0 0 1 5
1572 2 6.2 -9.8 0 0 0 0 1 5
1621 2 6 -9.6 0 0 0 0 1 5
1622 2 6.2 -9.6 0 0 0 0 1 5
1523 2 6.4 -10 0 0 0 0 1 5
1524 2 6.6 -10 0 0 0 0 1 5
1573 2 6.4 -9.8 0 0 0 0 1 5
1574 2 6.6 -9.8 0 0 0 0 1 5
1623 2 6.4 -9.6 0 0 0 0 1 5
1624 2 6.6 -9.6 0 0 0 0 1 5
1525 2 6.8 -10 0 0 0 0 1 5
1526 2 7 -10 0 0 0 0 1 5
1575 2 6.8 -9.8 0 0 0 0 1 5
1576 2 7 -9.8 0 0 0 0 1 5
1625 2 6.8 -9.6 0 0 0 0 1 5
1626 2 7 -9.6 0 0 0 0 1 5
1527 2 7.2 -10 0 0 0 0 1 5
1577 2 7.2 -9.8 0 0 0 0 1 5
1627 2 7.2 -9.6 0 0 0 0 1 5
1528 2 7.4 -10 0 0 0 0 1 5
1529 2 7.6 -10 0 0 0 0 1 5
1578 2 7.4 -9.8 0 0 0 0 1 5
1579 2 7.6 -9.8 0 0 0 0 1 5
1628 2 7.4 -9.6 0 0 0 0 1 5
1629 2 7.6 -9.6 0 0 0 0 1 5
1530 2 7.8 -10 0 0 0 0 1 5
1531 2 8 -10 0 0 0 0 1 5
1580 2 7.8 -9.8 0 0 0 0 1 5
1581 2 8 -9.8 0 0 0 0 1 5
1630 2 7.8 -9.6 0 0 0 0 1 5
1631 2 8 -9.6 0 0 0 0 1 5
1532 2 8.2 -10 0 0 0 0 1 5
1533 2 8.4 -10 0 0 0 0 1 5
1582 2 8.2 -9.8 0 0 0 0 1 5
1583 2 8.4 -9.8 0 0 0 0 1 5
1632 2 8.2 -9.6 0 0 0 0 1 5
1633 2 8.4 -9.6 0 0 0 0 1 5
1534 2 8.6 -10 0 0 0 0 1 5
1535 2 8.8 -10 0 0 0 0 1 5
1584 2 8.6 -9.8 0 0 0 0 1 5
1585 2 8.8 -9.8 0 0 0 0 1 5
1634 2 8.6 -9.6 0 0 0 0 1 5
1635 2 8.8 -9.6 0 0 0 0 1 5
1536 2 9 -10 0 0 0 0 1 5
1537 2 9.2 -10 0 0 0 0 1 5
1586 2 9 -9.8 0 0 0 0 1 5
1587 2 9.2 -9.8 0 0 0 0 1 5
1636 2 9 -9.6 0 0 0 0 1 5
1637 2 9.2 -9.6 0 0 0 0 1 5
1538 2 9.4 -10 0 0 0 0 1 5
1539 2 9.6 -10 0 0 0 0 1 5
1588 2 9.4 -9.8 0 0 0 0 1 5
1589 2 9.6 -9.8 0 0 0 0 1 5
1638 2 9.4 -9.6 0 0 0 0 1 5
1639 2 9.6 -9.6 0 0 0 0 1 5
1540 2 9.8 -10 0 0 0 0 1 5
1590 2 9.8 -9.8 0 0 0 0 1 5
1640 2 9.8 -9.6 0 0 0 0 1 5
1541 2 10 -10 0 0 0 0 1 5
1591 2 10 -9.8 0 0 0 0 1 5
1641 2 10 -9.6 0 0 0 0 1 5
1542 2 10.2 -10 0 0 0 0 1 5
1592 2 10.2 -9.8 0 0 0 0 1 5
1642 2 10.2 -9.6 0 0 0 0 1 5
1543 2 10.4 -10 0 0 0 0 1 5
1593 2 10.4 -9.8 0 0 0 0 1 5
1643 2 10.4 -9.6 0 0 0 0 1 5
1544 2 10.6 -10 0 0 0 0 1 5
1594 2 10.6 -9.8 0 0 0 0 1 5
1644 2 10.6 -9.6 0 0 0 0 1 5
1545 2 10.8 -10 0 0 0 0 1 5
1595 2 10.8 -9.8 0 0 0 0 1 5
1645 2 10.8 -9.6 0 0 0 0 1 5
1651 2 2 -9.4 0 0 0 0 1 5
1701 2 2 -9.2 0 0 0 0 1 5
1652 2 2.2 -9.4 0 0 0 0 1 5
1653 2 2.4 -9.4 0 0 0 0 1 5
1702 2 2.2 -9.2 0 0 0 0 1 5
1703 2 2.4 -9.2 0 0 0 0 1 5
1654 2 2.6 -9.4 0 0 0 0 1 5
1655 2 2.8 -9.4 0 0 0 0 1 5
1704 2 2.6 -9.2 0 0 0 0 1 5
1705 2 2.8 -9.2 0 0 0 0 1 5
1656 2 3 -9.4 0 0 0 0 1 5
1657 2 3.2 -9.4 0 0 0 0 1 5
1706 2 3 -9.2 0 0 0 0 1 5
1707 2 3.2 -9.2 0 0 0 0 1 5
1658 2 3.4 -9.4 0 0 0 0 1 5
1659 2 3.6 -9.4 0 0 0 0 1 5
1708 2 3.4 -9.2 0 0 0 0 1 5
1709 2 3.6 -9.2 0 0 0 0 1 5
1660 2 3.8 -9.4 0 0 0 0 1 5
1710 2 3.8 -9.2 0 0 0 0 1 5
1661 2 4 -9.4 0 0 0 0 1 5
1711 2 4 -9.2 0 0 0 0 1 5
1662 2 4.2 -9.4 0 0 0 0 1 5
1712 2 4.2 -9.2 0 0 0 0 1 5
1663 2 4.4 -9.4 0 0 0 0 1 5
1664 2 4.6 -9.4 0 0 0 0 1 5
1713 2 4.4 -9.2 0 0 0 0 1 5
1714 2 4.6 -9.2 0 0 0 0 1 5
1665 2 4.8 -9.4 0 0 0 0 1 5
1666 2 5 -9.4 0 0 0 0 1 5
1715 2 4.8 -9.2 0 0 0 0 1 5
1716 2 5 -9.2 0 0 0 0 1 5
1667 2 5.2 -9.4 0 0 0 0 1 5
1668 2 5.4 -9.4 0 0 0 0 1 5
1717 2 5.2 -9.2 0 0 0 0 1 5
1718 2 5.4 -9.2 0 0 0 0 1 5
1669 2 5.6 -9.4 0 0 0 0 1 5
1670 2 5.8 -9.4 0 0 0 0 1 5
1719 2 5.6 -9.2 0 0 0 0 1 5
1720 2 5.8 -9.2 0 0 0 0 1 5
1671 2 6 -9.4 0 0 0 0 1 5
1672 2 6.2 -9.4 0 0 0 0 1 5
1721 2 6 -9.2 0 0 0 0 1 5
1722 2 6.2 -9.2 0 0 0 0 1 5
1673 2 6.4 -9.4 0 0 0 0 1 5
1674 2 6.6 -9.4 0 0 0 0 1 5
1723 2 6.4 -9.2 0 0 0 0 1 5
1724 2 6.6 -9.2 0 0 0 0 1 5
1675 2 6.8 -9.4 0 0 0 0 1 5
1676 2 7 -9.4 0 0 0 0 1 5
1725 2 6.8 -9.2 0 0 0 0 1 5
1726 2 7 -9.2 0 0 0 0 1 5
1677 2 7.2 -9.4 0 0 0 0 1 5
1727 2 7.2 -9.2 0 0 0 0 1 5
1678 2 7.4 -9.4 0 0 0 0 1 5
1679 2 7.6 -9.4 0 0 0 0 1 5
1728 2 7.4 -9.2 0 0 0 0 1 5
1729 2 7.6 -9.2 0 0 0 0 1 5
1680 2 7.8 -9.4 0 0 0 0 1 5
1681 2 8 -9.4 0 0 0 0 1 5
1730 2 7.8 -9.2 0 0 0 0 1 5
1731 2 8 -9.2 0 0 0 0 1 5
1682 2 8.2 -9.4 0 0 0 0 1 5
1683 2 8.4 -9.4 0 0 0 0 1 5
1732 2 8.2 -9.2 0 0 0 0 1 5
1733 2 8.4 -9.2 0 0 0 0 1 5
1684 2 8.6 -9.4 0 0 0 0 1 5
1685 2 8.8 -9.4 0 0 0 0 1 5
1734 2 8.6 -9.2 0 0 0 0 1 5
1735 2 8.8 -9.2 0 0 0 0 1 5
1686 2 9 -9.4 0 0 0 0 1 5
1687 2 9.2 -9.4 0 0 0 0 1 5
1736 2 9 -9.2 0 0 0 0 1 5
1737 2 9.2 -9.2 0 0 0 0 1 5
1688 2 9.4 -9.4 0 0 0 0 1 5
1689 2 9.6 -9.4 0 0 0 0 1 5
1738 2 9.4 -9.2 0 0 0 0 1 5
1739 2 9.6 -9.2 0 0 0 0 1 5
1690 2 9.8 -9.4 0 0 0 0 1 5
1740 2 9.8 -9.2 0 0 0 0 1 5
1691 2 10 -9.4 0 0 0 0 1 5
1741 2 10 -9.2 0 0 0 0 1 5
1692 2 10.2 -9.4 0 0 0 0 1 5
1742 2 10.2 -9.2 0 0 0 0 1 5
1693 2 10.4 -9.4 0 0 0 0 1 5
1743 2 10.4 -9.2 0 0 0 0 1 5
1694 2 10.6 -9.4 0 0 0 0 1 5
1744 2 10.6 -9.2 0 0 0 0 1 5
1695 2 10.8 -9.4 0 0 0 0 1 5
1745 2 10.8 -9.2 0 0 0 0 1 5
1751 2 2 -9 0 0 0 0 1 5
1801 2 2 -8.8 0 0 0 0 1 5
1752 2 2.2 -9 0 0 0 0 1 5
1753 2 2.4 -9 0 0 0 0 1 5
1802 2 2.2 -8.8 0 0 0 0 1 5
1803 2 2.4 -8.8 0 0 0 0 1 5
1754 2 2.6 -9 0 0 0 0 1 5
1755 2 2.8 -9 0 0 0 0 1 5
1804 2 2.6 -8.8 0 0 0 0 1 5
1805 2 2.8 -8.8 0 0 0 0 1 5
1756 2 3 -9 0 0 0 0 1 5
1757 2 3.2 -9 0 0 0 0 1 5
1806 2 3 -8.8 0 0 0 0 1 5
1807 2 3.2 -8.8 0 0 0 0 1 5
1758 2 3.4 -9 0 0 0 0 1 5
1759 2 3.6 -9 0 0 0 0 1 5
1808 2 3.4 -8.8 0 0 0 0 1 5
1809 2 3.6 -8.8 0 0 0 0 1 5
1760 2 3.8 -9 0 0 0 0 1 5
1810 2 3.8 -8.8 0 0 0 0 1 5
1761 2 4 -9 0 0 0 0 1 5
1811 2 4 -8.8 0 0 0 0 1 5
1762 2 4.2 -9 0 0 0 0 1 5
1812 2 4.2 -8.8 0 0 0 0 1 5
1763 2 4.4 -9 0 0 0 0 1 5
1764 2 4.6 -9 0 0 0 0 1 5
1813 2 4.4 -8.8 0 0 0 0 1 5
1814 2 4.6 -8.8 0 0 0 0 1 5
1765 2 4.8 -9 0 0 0 0 1 5
1766 2 5 -9 0 0 0 0 1 5
1815 2 4.8 -8.8 0 0 0 0 1 5
1816 2 5 -8.8 0 0 0 0 1 5
1767 2 5.2 -9 0 0 0 0 1 5
1768 2 5.4 -9 0 0 0 0 1 5
1817 2 5.2 -8.8 0 0 0 0 1 5
1818 2 5.4 -8.8 0 0 0 0 1 5
1769 2 5.6 -9 0 0 0 0 1 5
1770 2 5.8 -9 0 0 0 0 1 5
1819 2 5.6 -8.8 0 0 0 0 1 5
1820 2 5.8 -8.8 0 0 0 0 1 5
1771 2 6 -9 0 0 0 0 1 5
1772 2 6.2 -9 0 0 0 0 1 5
1821 2 6 -8.8 0 0 0 0 1 5
1822 2 6.2 -8.8 0 0 0 0 1 5
1773 2 6.4 -9 0 0 0 0 1 5
1774 2 6.6 -9 0 0 0 0 1 5
1823 2 6.4 -8.8 0 0 0 0 1 5
1824 2 6.6 -8.8 0 0 0 0 1 5
1775 2 6.8 -9 0 0 0 0 1 5
1776 2 7 -9 0 0 0 0 1 5
1825 2 6.8 -8.8 0 0 0 0 1 5
1826 2 7 -8.8 0 0 0 0 1 5
1777 2 7.2 -9 0 0 0 0 1 5
1827 2 7.2 -8.8 0 0 0 0 1 5
1778 2 7.4 -9 0 0 0 0 1 5
1779 2 7.6 -9 0 0 0 0 1 5
1828 2 7.4 -8.8 0 0 0 0 1 5
1829 2 7.6 -8.8 0 0 0 0 1 5
1780 2 7.8 -9 0 0 0 0 1 5
1781 2 8 -9 0 0 0 0 1 5
1830 2 7.8 -8.8 0 0 0 0 1 5
1831 2 8 -8.8 0 0 0 0 1 5
1782 2 8.2 -9 0 0 0 0 1 5
1783 2 8.4 -9 0 0 0 0 1 5
1832 2 8.2 -8.8 0 0 0 0 1 5
1833 2 8.4 -8.8 0 0 0 0 1 5
1784 2 8.6 -9 0 0 0 0 1 5
1785 2 8.8 -9 0 0 0 0 1 5
1834 2 8.6 -8.8 0 0 0 0 1 5
1835 2 8.8 -8.8 0 0 0 0 1 5
1786 2 9 -9 0 0 0 0 1 5
1787 2 9.2 -9 0 0 0 0 1 5
1836 2 9 -8.8 0 0 0 0 1 5
1837 2 9.2 -8.8 0 0 0 0 1 5
1788 2 9.4 -9 0 0 0 0 1 5
1789 2 9.6 -9 0 0 0 0 1 5
1838 2 9.4 -8.8 0 0 0 0 1 5
1839 2 9.6 -8.8 0 0 0 0 1 5
1790 2 9.8 -9 0 0 0 0 1 5
1840 2 9.8 -8.8 0 0 0 0 1 5
1791 2 10 -9 0 0 0 0 1 5
1841 2 10 -8.8 0 0 0 0 1 5
1792 2 10.2 -9 0 0 0 0 1 5
1842 2 10.2 -8.8 0 0 0 0 1 5
1793 2 10.4 -9 0 0 0 0 1 5
1843 2 10.4 -8.8 0 0 0 0 1 5
1794 2 10.6 -9 0 0 0 0 1 5
1844 2 10.6 -8.8 0 0 0 0 1 5
1795 2 10.8 -9 0 0 0 0 1 5
1845 2 10.8 -8.8 0 0 0 0 1 5
1851 2 2 -8.6 0 0 0 0 1 5
1901 2 2 -8.4 0 0 0 0 1 5
1852 2 2.2 -8.6 0 0 0 0 1 5
1853 2 2.4 -8.6 0 0 0 0 1 5
1902 2 2.2 -8.4 0 0 0 0 1 5
1903 2 2.4 -8.4 0 0 0 0 1 5
1854 2 2.6 -8.6 0 0 0 0 1 5
1855 2 2.8 -8.6 0 0 0 0 1 5
1904 2 2.6 -8.4 0 0 0 0 1 5
1905 2 2.8 -8.4 0 0 0 0 1 5
1856 2 3 -8.6 0 0 0 0 1 5
1857 2 3.2 -8.6 0 0 0 0 1 5
1906 2 3 -8.4 0 0 0 0 1 5
1907 2 3.2 -8.4 0 0 0 0 1 5
1858 2 3.4 -8.6 0 0 0 0 1 5
1859 2 3.6 -8.6 0 0 0 0 1 5
1908 2 3.4 -8.4 0 0 0 0 1 5
1909 2 3.6 -8.4 0 0 0 0 1 5
1860 2 3.8 -8.6 0 0 0 0 1 5
1910 2 3.8 -8.4 0 0 0 0 1 5
1861 2 4 -8.6 0 0 0 0 1 5
1911 2 4 -8.4 0 0 0 0 1 5
1862 2 4.2 -8.6 0 0 0 0 1 5
1912 2 4.2 -8.4 0 0 0 0 1 5
1863 2 4.4 -8.6 0 0 0 0 1 5
1864 2 4.6 -8.6 0 0 0 0 1 5
1913 2 4.4 -8.4 0 0 0 0 1 5
1914 2 4.6 -8.4 0 0 0 0 1 5
1865 2 4.8 -8.6 0 0 0 0 1 5
1866 2 5 -8.6 0 0 0 0 1 5
1915 2 4.8 -8.4 0 0 0 0 1 5
1916 2 5 -8.4 0 0 0 0 1 5
1867 2 5.2 -8.6 0 0 0 0 1 5
1868 2 5.4 -8.6 0 0 0 0 1 5
1917 2 5.2 -8.4 0 0 0 0 1 5
1918 2 5.4 -8.4 0 0 0 0 1 5
1869 2 5.6 -8.6 0 0 0 0 1 5
1870 2 5.8 -8.6 0 0 0 0 1 5
1919 2 5.6 -8.4 0 0 0 0 1 5
1920 2 5.8 -8.4 0 0 0 0 1 5
1871 2 6 -8.6 0 0 0 0 1 5
1872 2 6.2 -8.6 0 0 0 0 1 5
1921 2 6 -8.4 0 0 0 0 1 5
1922 2 6.2 -8.4 0 0 0 0 1 5
1873 2 6.4 -8.6 0 0 0 0 1 5
1874 2 6.6 -8.6 0 0 0 0 1 5
1923 2 6.4 -8.4 0 0 0 0 1 5
1924 2 6.6 -8.4 0 0 0 0 1 5
1875 2 6.8 -8.6 0 0 0 0 1 5
1876 2 7 -8.6 0 0 0 0 1 5
1925 2 6.8 -8.4 0 0 0 0 1 5
1926 2 7 -8.4 0 0 0 0 1 5
1877 2 7.2 -8.6 0 0 0 0 1 5
1927 2 7.2 -8.4 0 0 0 0 1 5
1878 2 7.4 -8.6 0 0 0 0 1 5
1879 2 7.6 -8.6 0 0 0 0 1 5
1928 2 7.4 -8.4 0 0 0 0 1 5
1929 2 7.6 -8.4 0 0 0 0 1 5
1880 2 7.8 -8.6 0 0 0 0 1 5
1881 2 8 -8.6 0 0 0 0 1 5
1930 2 7.8 -8.4 0 0 0 0 1 5
1931 2 8 -8.4 0 0 0 0 1 5
1882 2 8.2 -8.6 0 0 0 0 1 5
1883 2 8.4 -8.6 0 0 0 0 1 5
1932 2 8.2 -8.4 0 0 0 0 1 5
1933 2 8.4 -8.4 0 0 0 0 1 5
1884 2 8.6 -8.6 0 0 0 0 1 5
1885 2 8.8 -8.6 0 0 0 0 1 5
1934 2 8.6 -8.4 0 0 0 0 1 5
1935 2 8.8 -8.4 0 0 0 0 1 5
1886 2 9 -8.6 0 0 0 0 1 5
1887 2 9.2 -8.6 0 0 0 0 1 5
1936 2 9 -8.4 0 0 0 0 1 5
1937 2 9.2 -8.4 0 0 0 0 1 5
1888 2 9.4 -8.6 0 0 0 0 1 5
1889 2 9.6 -8.6 0 0 0 0 1 5
1938 2 9.4 -8.4 0 0 0 0 1 5
1939 2 9.6 -8.4 0 0 0 0 1 5
1890 2 9.8 -8.6 0 0 0 0 1 5
1940 2 9.8 -8.4 0 0 0 0 1 5
1891 2 10 -8.6 0 0 0 0 1 5
1941 2 10 -8.4 0 0 0 0 1 5
1892 2 10.2 -8.6 0 0 0 0 1 5
1942 2 10.2 -8.4 0 0 0 0 1 5
1893 2 10.4 -8.6 0 0 0 0 1 5
1943 2 10.4 -8.4 0 0 0 0 1 5
1894 2 10.6 -8.6 0 0 0 0 1 5
1944 2 10.6 -8.4 0 0 0 0 1 5
1895 2 10.8 -8.6 0 0 0 0 1 5
1945 2 10.8 -8.4 0 0 0 0 1 5
1951 2 2 -8.2 0 0 0 0 1 5
2001 2 2 -8 0 0 0 0 1 5
1952 2 2.2 -8.2 0 0 0 0 1 5
1953 2 2.4 -8.2 0 0 0 0 1 5
2002 2 2.2 -8 0 0 0 0 1 5
2003 2 2.4 -8 0 0 0 0 1 5
1954 2 2.6 -8.2 0 0 0 0 1 5
1955 2 2.8 -8.2 0 0 0 0 1 5
2004 2 2.6 -8 0 0 0 0 1 5
2005 2 2.8 -8 0 0 0 0 1 5
1956 2 3 -8.2 0 0 0 0 1 5
1957 2 3.2 -8.2 0 0 0 0 1 5
2006 2 3 -8 0 0 0 0 1 5
2007 2 3.2 -8 0 0 0 0 1 5
1958 2 3.4 -8.2 0 0 0 0 1 5
1959 2 3.6 -8.2 0 0 0 0 1 5
2008 2 3.4 -8 0 0 0 0 1 5
2009 2 3.6 -8 0 0 0 0 1 5
1960 2 3.8 -8.2 0 0 0 0 1 5
2010 2 3.8 -8 0 0 0 0 1 5
1961 2 4 -8.2 0 0 0 0 1 5
2011 2 4 -8 0 0 0 0 1 5
1962 2 4.2 -8.2 0 0 0 0 1 5
2012 2 4.2 -8 0 0 0 0 1 5
1963 2 4.4 -8.2 0 0 0 0 1 5
1964 2 4.6 -8.2 0 0 0 0 1 5
2013 2 4.4 -8 0 0 0 0 1 5
2014 2 4.6 -8 0 0 0 0 1 5
1965 2 4.8 -8.2 0 0 0 0 1 5
1966 2 5 -8.2 0 0 0 0 1 5
2015 2 4.8 -8 0 0 0 0 1 5
2016 2 5 -8 0 0 0 0 1 5
1967 2 5.2 -8.2 0 0 0 0 1 5
1968 2 5.4 -8.2 0 0 0 0 1 5
2017 2 5.2 -8 0 0 0 0 1 5
2018 2 5.4 -8 0 0 0 0 1 5
1969 2 5.6 -8.2 0 0 0 0 1 5
1970 2 5.8 -8.2 0 0 0 0 1 5
2019 2 5.6 -8 0 0 0 0 1 5
2020 2 5.8 -8 0 0 0 0 1 5
1971 2 6 -8.2 0 0 0 0 1 5
1972 2 6.2 -8.2 0 0 0 0 1 5
2021 2 6 -8 0 0 0 0 1 5
2022 2 6.2 -8 0 0 0 0 1 5
1973 2 6.4 -8.2 0 0 0 0 1 5
1974 2 6.6 -8.2 0 0 0 0 1 5
2023 2 6.4 -8 0 0 0 0 1 5
2024 2 6.6 -8 0 0 0 0 1 5
1975 2 6.8 -8.2 0 0 0 0 1 5
1976 2 7 -8.2 0 0 0 0 1 5
2025 2 6.8 -8 0 0 0 0 1 5
2026 2 7 -8 0 0 0 0 1 5
1977 2 7.2 -8.2 0 0 0 0 1 5
2027 2 7.2 -8 0 0 0 0 1 5
1978 2 7.4 -8.2 0 0 0 0 1 5
1979 2 7.6 -8.2 0 0 0 0 1 5
2028 2 7.4 -8 0 0 0 0 1 5
2029 2 7.6 -8 0 0 0 0 1 5
1980 2 7.8 -8.2 0 0 0 0 1 5
1981 2 8 -8.2 0 0 0 0 1 5
2030 2 7.8 -8 0 0 0 0 1 5
2031 2 8 -8 0 0 0 0 1 5
1982 2 8.2 -8.2 0 0 0 0 1 5
1983 2 8.4 -8.2 0 0 0 0 1 5
2032 2 8.2 -8 0 0 0 0 1 5
2033 2 8.4 -8 0 0 0 0 1 5
1984 2 8.6 -8.2 0 0 0 0 1 5
1985 2 8.8 -8.2 0 0 0 0 1 5
2034 2 8.6 -8 0 0 0 0 1 5
2035 2 8.8 -8 0 0 0 0 1 5
1986 2 9 -8.2 0 0 0 0 1 5
1987 2 9.2 -8.2 0 0 0 0 1 5
2036 2 9 -8 0 0 0 0 1 5
2037 2 9.2 -8 0 0 0 0 1 5
1988 2 9.4 -8.2 0 0 0 0 1 5
1989 2 9.6 -8.2 0 0 0 0 1 5
2038 2 9.4 -8 0 0 0 0 1 5
2039 2 9.6 -8 0 0 0 0 1 5
1990 2 9.8 -8.2 0 0 0 0 1 5
2040 2 9.8 -8 0 0 0 0 1 5
1991 2 10 -8.2 0 0 0 0 1 5
2041 2 10 -8 0 0 0 0 1 5
1992 2 10.2 -8.2 0 0 0 0 1 5
2042 2 10.2 -8 0 0 0 0 1 5
1993 2 10.4 -8.2 0 0 0 0 1 5
2043 2 10.4 -8 0 0 0 0 1 5
1994 2 10.6 -8.2 0 0 0 0 1 5
2044 2 10.6 -8 0 0 0 0 1 5
1995 2 10.8 -8.2 0 0 0 0 1 5
2045 2 10.8 -8 0 0 0 0 1 5
2051 2 2 -7.8 0 0 0 0 1 5
2101 2 2 -7.6 0 0 0 0 1 5
2052 2 2.2 -7.8 0 0 0 0 1 5
2053 2 2.4 -7.8 0 0 0 0 1 5
2102 2 2.2 -7.6 0 0 0 0 1 5
2103 2 2.4 -7.6 0 0 0 0 1 5
2054 2 2.6 -7.8 0 0 0 0 1 5
2055 2 2.8 -7.8 0 0 0 0 1 5
2104 2 2.6 -7.6 0 0 0 0 1 5
2105 2 2.8 -7.6 0 0 0 0 1 5
2056 2 3 -7.8 0 0 0 0 1 5
2057 2 3.2 -7.8 0 0 0 0 1 5
2106 2 3 -7.6 0 0 0 0 1 5
2107 2 3.2 -7.6 0 0 0 0 1 5
2058 2 3.4 -7.8 0 0 0 0 1 5
2059 2 3.6 -7.8 0 0 0 0 1 5
2108 2 3.4 -7.6 0 0 0 0 1 5
2109 2 3.6 -7.6 0 0 0 0 1 5
2060 2 3.8 -7.8 0 0 0 0 1 5
2110 2 3.8 -7.6 0 0 0 0 1 5
2061 2 4 -7.8 0 0 0 0 1 5
2111 2 4 -7.6 0 0 0 0 1 5
2062 2 4.2 -7.8 0 0 0 0 1 5
2112 2 4.2 -7.6 0 0 0 0 1 5
2063 2 4.4 -7.8 0 0 0 0 1 5
2064 2 4.6 -7.8 0 0 0 0 1 5
2113 2 4.4 -7.6 0 0 0 0 1 5
2114 2 4.6 -7.6 0 0 0 0 1 5
2065 2 4.8 -7.8 0 0 0 0 1 5
2066 2 5 -7.8 0 0 0 0 1 5
2115 2 4.8 -7.6 0 0 0 0 1 5
2116 2 5 -7.6 0 0 0 0 1 5
2067 2 5.2 -7.8 0 0 0 0 1 5
2068 2 5.4 -7.8 0 0 0 0 1 5
2117 2 5.2 -7.6 0 0 0 0 1 5
2118 2 5.4 -7.6 0 0 0 0 1 5
2069 2 5.6 -7.8 0 0 0 0 1 5
2070 2 5.8 -7.8 0 0 0 0 1 5
2119 2 5.6 -7.6 0 0 0 0 1 5
2120 2 5.8 -7.6 0 0 0 0 1 5
2071 2 6 -7.8 0 0 0 0 1 5
2072 2 6.2 -7.8 0 0 0 0 1 5
2121 2 6 -7.6 0 0 0 0 1 5
2122 2 6.2 -7.6 0 0 0 0 1 5
2073 2 6.4 -7.8 0 0 0 0 1 5
2074 2 6.6 -7.8 0 0 0 0 1 5
2123 2 6.4 -7.6 0 0 0 0 1 5
2124 2 6.6 -7.6 0 0 0 0 1 5
2075 2 6.8 -7.8 0 0 0 0 1 5
2076 2 7 -7.8 0 0 0 0 1 5
2125 2 6.8 -7.6 0 0 0 0 1 5
2126 2 7 -7.6 0 0 0 0 1 5
2077 2 7.2 -7.8 0 0 0 0 1 5
2127 2 7.2 -7.6 0 0 0 0 1 5
2078 2 7.4 -7.8 0 0 0 0 1 5
2079 2 7.6 -7.8 0 0 0 0 1 5
2128 2 7.4 -7.6 0 0 0 0 1 5
2129 2 7.6 -7.6 0 0 0 0 1 5
2080 2 7.8 -7.8 0 0 0 0 1 5
2081 2 8 -7.8 0 0 0 0 1 5
2130 2 7.8 -7.6 0 0 0 0 1 5
2131 2 8 -7.6 0 0 0 0 1 5
2082 2 8.2 -7.8 0 0 0 0 1 5
2083 2 8.4 -7.8 0 0 0 0 1 5
2132 2 8.2 -7.6 0 0 0 0 1 5
2133 2 8.4 -7.6 0 0 0 0 1 5
2084 2 8.6 -7.8 0 0 0 0 1 5
2085 2 8.8 -7.8 0 0 0 0 1 5
2134 2 8.6 -7.6 0 0 0 0 1 5
2135 2 8.8 -7.6 0 0 0 0 1 5
2086 2 9 -7.8 0 0 0 0 1 5
2087 2 9.2 -7.8 0 0 0 0 1 5
2136 2 9 -7.6 0 0 0 0 1 5
2137 2 9.2 -7.6 0 0 0 0 1 5
2088 2 9.4 -7.8 0 0 0 0 1 5
2089 2 9.6 -7.8 0 0 0 0 1 5
2138 2 9.4 -7.6 0 0 0 0 1 5
2139 2 9.6 -7.6 0 0 0 0 1 5
2090 2 9.8 -7.8 0 0 0 0 1 5
2140 2 9.8 -7.6 0 0 0 0 1 5
2091 2 10 -7.8 0 0 0 0 1 5
2141 2 10 -7.6 0 0 0 0 1 5
2092 2 10.2 -7.8 0 0 0 0 1 5
2142 2 10.2 -7.6 0 0 0 0 1 5
2093 2 10.4 -7.8 0 0 0 0 1 5
2143 2 10.4 -7.6 0 0 0 0 1 5
2094 2 10.6 -7.8 0 0 0 0 1 5
2144 2 10.6 -7.6 0 0 0 0 1 5
2095 2 10.8 -7.8 0 0 0 0 1 5
2145 2 10.8 -7.6 0 0 0 0 1 5
2151 2 2 -7.4 0 0 0 0 1.0006 5
2201 2 2 -7.2 0 0 0 0 1.00213 5
2152 2 2.2 -7.4 0 0 0 0 1.00216 5
2153 2 2.4 -7.4 0 0 0 0 0.992556 5
2202 2 2.2 -7.2 0 0 0 0 0.999694 5
2203 2 2.4 -7.2 0 0 0 0 0.997504 5
2154 2 2.6 -7.4 0 0 0 0 1.00142 5
2155 2 2.8 -7.4 0 0 0 0 1.00168 5
2204 2 2.6 -7.2 0 0 0 0 0.999795 5
2205 2 2.8 -7.2 0 0 0 0 0.999271 5
2156 2 3 -7.4 0 0 0 0 0.991874 5
2157 2 3.2 -7.4 0 0 0 0 0.999818 5
2206 2 3 -7.2 0 0 0 0 0.999262 5
2207 2 3.2 -7.2 0 0 0 0 1.00097 5
2158 2 3.4 -7.4 0 0 0 0 1.00474 5
2159 2 3.6 -7.4 0 0 0 0 0.999498 5
2208 2 3.4 -7.2 0 0 0 0 1.00166 5
2209 2 3.6 -7.2 0 0 0 0 1.00245 5
2160 2 3.8 -7.4 0 0 0 0 1.0007 5
2210 2 3.8 -7.2 0 0 0 0 1.00969 5
2161 2 4 -7.4 0 0 0 0 1.03415 5
2211 2 4 -7.2 0 0 0 0 1.02441 5
2162 2 4.2 -7.4 0 0 0 0 1.03864 5
2212 2 4.2 -7.2 0 0 0 0 1.03542 5
2163 2 4.4 -7.4 0 0 0 0 1.03485 5
2164 2 4.6 -7.4 0 0 0 0 1.02907 5
2213 2 4.4 -7.2 0 0 0 0 1.03579 5
2214 2 4.6 -7.2 0 0 0 0 1.02995 5
2165 2 4.8 -7.4 0 0 0 0 1.02829 5
2166 2 5 -7.4 0 0 0 0 1.02795 5
2215 2 4.8 -7.2 0 0 0 0 1.02877 5
2216 2 5 -7.2 0 0 0 0 1.02852 5
2167 2 5.2 -7.4 0 0 0 0 1.02791 5
2168 2 5.4 -7.4 0 0 0 0 1.0279 5
2217 2 5.2 -7.2 0 0 0 0 1.02849 5
2218 2 5.4 -7.2 0 0 0 0 1.02851 5
2169 2 5.6 -7.4 0 0 0 0 1.02791 5
2170 2 5.8 -7.4 0 0 0 0 1.02785 5
2219 2 5.6 -7.2 0 0 0 0 1.02842 5
2220 2 5.8 -7.2 0 0 0 0 1.02829 5
2171 2 6 -7.4 0 0 0 0 1.02775 5
2172 2 6.2 -7.4 0 0 0 0 1.02769 5
2221 2 6 -7.2 0 0 0 0 1.0282 5
2222 2 6.2 -7.2 0 0 0 0 1.02815 5
2173 2 6.4 -7.4 0 0 0 0 1.02747 5
2174 2 6.6 -7.4 0 0 0 0 1.02754 5
2223 2 6.4 -7.2 0 0 0 0 1.02811 5
2224 2 6.6 -7.2 0 0 0 0 1.02815 5
2175 2 6.8 -7.4 0 0 0 0 1.02766 5
2176 2 7 -7.4 0 0 0 0 1.02752 5
2225 2 6.8 -7.2 0 0 0 0 1.02808 5
2226 2 7 -7.2 0 0 0 0 1.02796 5
2177 2 7.2 -7.4 0 0 0 0 1.02694 5
2227 2 7.2 -7.2 0 0 0 0 1.02772 5
2178 2 7.4 -7.4 0 0 0 0 1.0269 5
2179 2 7.6 -7.4 0 0 0 0 1.02718 5
2228 2 7.4 -7.2 0 0 0 0 1.02766 5
2229 2 7.6 -7.2 0 0 0 0 1.02775 5
2180 2 7.8 -7.4 0 0 0 0 1.02728 5
2181 2 8 -7.4 0 0 0 0 1.02684 5
2230 2 7.8 -7.2 0 0 0 0 1.02774 5
2231 2 8 -7.2 0 0 0 0 1.0275 5
2182 2 8.2 -7.4 0 0 0 0 1.02673 5
2183 2 8.4 -7.4 0 0 0 0 1.02687 5
2232 2 8.2 -7.2 0 0 0 0 1.02738 5
2233 2 8.4 -7.2 0 0 0 0 1.02736 5
2184 2 8.6 -7.4 0 0 0 0 1.02684 5
2185 2 8.8 -7.4 0 0 0 0 1.02678 5
2234 2 8.6 -7.2 0 0 0 0 1.02728 5
2235 2 8.8 -7.2 0 0 0 0 1.02717 5
2186 2 9 -7.4 0 0 0 0 1.02666 5
2187 2 9.2 -7.4 0 0 0 0 1.02647 5
2236 2 9 -7.2 0 0 0 0 1.02705 5
2237 2 9.2 -7.2 0 0 0 0 1.02691 5
2188 2 9.4 -7.4 0 0 0 0 1.0262 5
2189 2 9.6 -7.4 0 0 0 0 1.026 5
2238 2 9.4 -7.2 0 0 0 0 1.02674 5
2239 2 9.6 -7.2 0 0 0 0 1.0266 5
2190 2 9.8 -7.4 0 0 0 0 1.02594 5
2240 2 9.8 -7.2 0 0 0 0 1.02653 5
2191 2 10 -7.4 0 0 0 0 1.02602 5
2241 2 10 -7.2 0 0 0 0 1.02652 5
2192 2 10.2 -7.4 0 0 0 0 1.02609 5
2242 2 10.2 -7.2 0 0 0 0 1.02644 5
2193 2 10.4 -7.4 0 0 0 0 1.02604 5
2243 2 10.4 -7.2 0 0 0 0 1.02638 5
2194 2 10.6 -7.4 0 0 0 0 1.02601 5
2244 2 10.6 -7.2 0 0 0 0 1.02633 5
2195 2 10.8 -7.4 0 0 0 0 1.02593 5
2245 2 10.8 -7.2 0 0 0 0 1.02628 5
15661 1 1.20734 -6.76311 0.02 0 0 0 1 2
15662 1 1.40688 -6.73741 0.02 0 -6.31245e-07 -2.92491e-07 1 2
15663 1 1.59966 -6.74525 0.02 0 -0.000243481 -8.35431e-05 1 2
15664 1 1.79305 -6.74496 0.02 0 -0.00209305 -0.000462205 1 2
15665 1 2.00096 -6.75843 0.02 0 -0.0036769 -0.000630894 1 2
15666 1 2.23546 -6.77278 0.02 0 -0.00351262 -0.000459071 1 2
15667 1 2.4439 -6.74284 0.02 0 -0.00238359 -0.000390498 1 2
2251 2 2 -7 0 0 0 0 1.0017 5
15668 1 2.64185 -6.74114 0.02 0 -0.00268032 -0.00045962 1 2
15669 1 2.8347 -6.7467 0.02 0 -0.00309832 -0.000422724 1 2
2252 2 2.2 -7 0 0 0 0 0.99968 5
2253 2 2.4 -7 0 0 0 0 0.998849 5
15670 1 3.01499 -6.7167 0.02 0 -0.00199073 -0.000288895 1 2
15671 1 3.19648 -6.74068 0.02 0 -0.00281573 -0.000402063 1 2
2254 2 2.6 -7 0 0 0 0 0.999811 5
2255 2 2.8 -7 0 0 0 0 0.99956 5
14982 1 3.38135 -6.73521 0.02 0 -0.00268403 -0.00040114 1 2
14985 1 3.57984 -6.75894 0.02 0 -0.00340174 -0.00018608 1 2
2256 2 3 -7 0 0 0 0 0.999683 5
2257 2 3.2 -7 0 0 0 0 1.00057 5
14986 1 3.78945 -6.75979 0.02 0 -0.00695429 0.000137118 1 2
14990 1 3.98239 -6.73835 0.02 0 -0.0116908 0.00308167 1 2
14991 1 4.00112 -6.7601 0.00701948 0.00142339 -0.000213964 0.000115552 1.02922 0
2258 2 3.4 -7 0 0 0 0 1.00103 5
2259 2 3.6 -7 0 0 0 0 1.0028 5
2260 2 3.8 -7 0 0 0 0 1.00975 5
14992 1 4.2313 -6.61072 0.00962501 0.00254655 -0.000294361 -2.84196e-05 1.03714 0
14994 1 4.13166 -6.8194 0.00301507 -0.000827869 -0.000171253 5.63674e-05 1.04374 0
14995 1 4.32221 -6.72087 0.00658357 0.000739824 -0.000160186 2.00108e-05 1.0367 0
2261 2 4 -7 0 0 0 0 1.01938 5
2262 2 4.2 -7 0 0 0 0 1.03083 5
14996 1 4.45508 -6.64403 0.0092095 0.00137874 -7.93982e-05 -1.51838e-05 1.03178 0
14300 1 4.51678 -6.78043 0.00530241 0.000192165 -3.76344e-05 1.59737e-05 1.03202 0
14301 1 4.71423 -6.59804 0.00915043 0.00148968 -1.68382e-05 -1.60725e-06 1.02946 0
14304 1 4.68473 -6.76144 0.00505402 0.000291162 -1.50865e-05 6.05536e-06 1.03043 0
2263 2 4.4 -7 0 0 0 0 1.03511 5
2264 2 4.6 -7 0 0 0 0 1.0308 5
14303 1 4.87172 -6.59221 0.00825956 0.0012762 -4.5239e-06 1.23522e-06 1.02932 0
14305 1 5.04108 -6.58916 0.00736814 0.00101356 -6.27614e-07 1.81907e-06 1.0292 0
14308 1 4.85048 -6.76353 0.00416508 9.15466e-05 -3.2498e-06 2.39468e-06 1.03027 0
13616 1 5.01041 -6.74579 0.0039412 9.12783e-05 -9.9961e-08 1.57262e-06 1.02989 0
2265 2 4.8 -7 0 0 0 0 1.02935 5
2266 2 5 -7 0 0 0 0 1.02906 5
13619 1 5.16431 -6.73149 0.00375018 8.84514e-05 -9.25852e-07 1.61979e-06 1.02952 0
13622 1 5.46247 -6.60904 0.00543252 0.000595865 -3.48211e-06 2.35088e-06 1.02863 0
12903 1 5.31186 -6.77571 0.00274029 -0.000182728 -2.14165e-06 1.47452e-06 1.02991 0
12907 1 5.49947 -6.77231 0.00255306 -0.000158361 -2.53391e-06 1.67821e-06 1.02967 0
2267 2 5.2 -7 0 0 0 0 1.02902 5
2268 2 5.4 -7 0 0 0 0 1.02902 5
12905 1 5.62586 -6.59799 0.00522922 0.000553512 -4.43217e-06 2.88879e-06 1.02848 0
12210 1 5.68085 -6.76398 0.00244696 -0.000132912 -3.11857e-06 1.90955e-06 1.02939 0
11540 1 5.8563 -6.74833 0.00245717 -9.26943e-05 -3.90178e-06 2.29538e-06 1.0291 0
2269 2 5.6 -7 0 0 0 0 1.02888 5
2270 2 5.8 -7 0 0 0 0 1.0287 5
13624 1 5.78698 -6.58982 0.00501567 0.00050405 -5.28461e-06 3.3501e-06 1.02836 0
11552 1 6.02008 -6.76516 0.00212187 -0.000191395 -4.24404e-06 2.44171e-06 1.02925 0
10855 1 6.19556 -6.76433 0.00198729 -0.000198089 -4.58474e-06 2.69125e-06 1.02916 0
10858 1 6.3724 -6.68467 0.00282983 0.000122144 -6.13727e-06 3.31161e-06 1.0283 0
2271 2 6 -7 0 0 0 0 1.02861 5
2272 2 6.2 -7 0 0 0 0 1.02856 5
10169 1 6.47043 -6.79758 0.00154173 -0.000338098 -4.46612e-06 2.7129e-06 1.02928 0
10172 1 6.63772 -6.72984 0.00213325 -6.59813e-05 -5.5062e-06 2.9948e-06 1.02864 0
2273 2 6.4 -7 0 0 0 0 1.02855 5
2274 2 6.6 -7 0 0 0 0 1.02852 5
3109 1 6.79961 -6.75219 0.00181981 -0.000200699 -5.28777e-06 2.82445e-06 1.02885 0
3113 1 6.96243 -6.7668 0.00164665 -0.000269623 -5.19008e-06 2.84607e-06 1.02897 0
3115 1 7.15368 -6.7483 0.00173505 -0.000214793 -5.22327e-06 3.53483e-06 1.02856 0
2275 2 6.8 -7 0 0 0 0 1.02842 5
2276 2 7 -7 0 0 0 0 1.02835 5
10861 1 7.04694 -6.61013 0.00331483 0.000138924 -6.50075e-06 4.40837e-06 1.02796 0
10163 1 7.34294 -6.6034 0.00321323 7.79778e-05 -5.24014e-06 4.78036e-06 1.02783 0
3116 1 7.47232 -6.68488 0.00221569 -4.61693e-05 -4.33573e-06 4.17812e-06 1.02807 0
3119 1 7.33555 -6.83687 0.00120558 -0.000554315 -4.61903e-06 3.42988e-06 1.02889 0
3117 1 7.65677 -6.64867 0.00253139 2.46947e-08 -3.52011e-06 4.06342e-06 1.02782 0
2277 2 7.2 -7 0 0 0 0 1.02826 5
2278 2 7.4 -7 0 0 0 0 1.02823 5
2279 2 7.6 -7 0 0 0 0 1.02821 5
3121 1 7.6728 -6.80412 0.00121592 -0.000403758 -3.32661e-06 2.92626e-06 1.02881 0
3118 1 7.95112 -6.63036 0.0026234 -1.64835e-05 -1.44781e-06 3.91269e-06 1.02763 0
3123 1 7.88749 -6.7825 0.001332 -0.000341114 -2.56977e-06 2.6891e-06 1.02855 0
2280 2 7.8 -7 0 0 0 0 1.02815 5
2281 2 8 -7 0 0 0 0 1.02799 5
3108 1 8.12206 -6.62833 0.00257643 -2.69758e-05 -3.66287e-08 3.43556e-06 1.02754 0
3125 1 8.11816 -6.82159 0.00113254 -0.000497731 -1.66709e-06 2.051e-06 1.0285 0
3120 1 8.28411 -6.62515 0.0025192 -4.01068e-05 1.19652e-06 3.07234e-06 1.02747 0
3126 1 8.36958 -6.75236 0.00143581 -0.000283816 1.08055e-07 1.81897e-06 1.02813 0
2282 2 8.2 -7 0 0 0 0 1.02787 5
2283 2 8.4 -7 0 0 0 0 1.02774 5
3127 1 8.54472 -6.77064 0.00126383 -0.000361832 6.78813e-07 1.21673e-06 1.0282 0
3128 1 8.72822 -6.7555 0.00134127 -0.000317651 1.83e-06 9.90496e-07 1.02798 0
2284 2 8.6 -7 0 0 0 0 1.02764 5
2285 2 8.8 -7 0 0 0 0 1.02752 5
3129 1 8.90909 -6.76568 0.00124107 -0.000360603 2.5155e-06 5.41056e-07 1.02796 0
3130 1 9.09009 -6.75075 0.00130024 -0.000324241 3.61014e-06 3.19625e-07 1.02776 0
3131 1 9.26695 -6.73458 0.00135647 -0.00027679 4.6435e-06 1.30555e-07 1.0275 0
2286 2 9 -7 0 0 0 0 1.02739 5
2287 2 9.2 -7 0 0 0 0 1.02725 5
3132 1 9.43393 -6.78509 0.00104408 -0.000435506 4.04694e-06 -5.41591e-07 1.02774 0
3133 1 9.62361 -6.69371 0.00151072 -0.000159228 6.7052e-06 -2.48894e-07 1.02696 0
2288 2 9.4 -7 0 0 0 0 1.02714 5
2289 2 9.6 -7 0 0 0 0 1.02704 5
3134 1 9.74875 -6.79961 0.000905212 -0.000461962 4.36643e-06 -9.42732e-07 1.02756 0
3135 1 9.93544 -6.72724 0.00122768 -0.000242512 6.20411e-06 -6.34358e-07 1.02709 0
3136 1 10.1077 -6.7528 0.00103783 -0.000329545 5.64001e-06 -8.72249e-07 1.02721 0
2290 2 9.8 -7 0 0 0 0 1.02696 5
2291 2 10 -7 0 0 0 0 1.02685 5
3137 1 10.2875 -6.75845 0.000980285 -0.000338672 5.47921e-06 -9.67605e-07 1.02719 0
3138 1 10.4775 -6.76002 0.000943333 -0.000331228 5.36235e-06 -1.05961e-06 1.02712 0
2292 2 10.2 -7 0 0 0 0 1.02677 5
2293 2 10.4 -7 0 0 0 0 1.02671 5
3139 1 10.6713 -6.75504 0.000926426 -0.000308996 5.27811e-06 -1.1128e-06 1.02702 0
3140 1 10.8609 -6.7616 0.000862924 -0.00032564 5.00698e-06 -1.19205e-06 1.02702 0
2294 2 10.6 -7 0 0 0 0 1.02664 5
2295 2 10.8 -7 0 0 0 0 1.02659 5
15694 1 1.20442 -6.56957 0.02 0 0 0 1 2
15695 1 1.3517 -6.17242 0.02 0 0 0 1 2
15696 1 1.38981 -6.548 0.02 0 -8.45199e-10 -2.26805e-10 1 2
15698 1 1.58352 -6.55339 0.02 0 -8.10012e-07 -2.08765e-08 1 2
15699 1 1.39732 -6.36064 0.02 0 0 0 1 2
15700 1 1.60949 -6.36725 0.02 0 6.79366e-08 1.38374e-06 1 2
15701 1 1.55791 -6.18432 0.02 0 3.59576e-11 1.01237e-10 1 2
15697 1 1.7919 -6.56753 0.02 0 -4.80392e-05 3.45639e-05 1 2
15702 1 1.77958 -6.20217 0.02 0 8.24426e-08 2.18453e-07 1 2
15704 1 2.01144 -6.57879 0.02 0 -0.000102363 0.000327011 1 2
15705 1 1.80962 -6.38875 0.02 0 6.60796e-06 3.46125e-05 1 2
15706 1 2.002 -6.39164 0.02 0 4.84476e-05 7.92459e-05 1 2
15708 1 1.99266 -6.19888 0.02 0 2.03442e-06 3.91873e-06 1 2
15703 1 2.22352 -6.59334 0.02 0 -9.62904e-05 0.000318567 1 2
15707 1 2.19674 -6.4155 0.02 0 0.00014757 0.00019822 1 2
15709 1 2.19583 -6.22273 0.02 0 1.10856e-05 2.11715e-05 1 2
15711 1 2.43406 -6.5619 0.02 0 0.000157837 0.000356528 1 2
15712 1 2.39724 -6.38406 0.02 0 0.000122384 0.000169703 1 2
15714 1 2.39198 -6.19544 0.02 0 8.03491e-06 1.69616e-05 1 2
15710 1 2.63405 -6.55597 0.02 0 0.000180313 0.000382183 1 2
15713 1 2.60898 -6.36958 0.02 0 9.9936e-05 0.000138075 1 2
15715 1 2.5848 -6.17896 0.02 0 5.54579e-06 1.26449e-05 1 2
15717 1 2.82347 -6.54197 0.02 0 0.000226942 0.000397266 1 2
15718 1 2.80641 -6.3409 0.02 0 6.94166e-05 0.000102556 1 2
14998 1 3.20213 -6.54063 0.02 0 0.000252321 0.000413172 1 2
15716 1 3.01198 -6.52686 0.02 0 0.000229994 0.000371144 1 2
15719 1 2.99654 -6.32761 0.02 0 5.35808e-05 7.75307e-05 1 2
15720 1 3.18339 -6.3356 0.02 0 6.2289e-05 9.53465e-05 1 2
14999 1 3.39499 -6.54936 0.02 0 0.000209305 0.000467407 1 2
15000 1 3.36719 -6.35187 0.02 0 7.44388e-05 0.000106357 1 2
15001 1 3.58697 -6.57051 0.02 0 -0.000125422 0.000467469 1 2
15003 1 3.55365 -6.37687 0.02 0 -2.16841e-05 0.000139872 1 2
15005 1 3.56239 -6.18311 0.02 0 -0.000147371 1.09026e-05 1 2
15004 1 3.74439 -6.37271 0.02 0 -0.00120879 0.000147527 1 2
15002 1 3.77341 -6.56758 0.02 0 -0.00183245 0.000583135 1 2
15006 1 3.75766 -6.17218 0.02 0 -0.00134116 2.06476e-05 1 2
15007 1 3.96001 -6.54947 0.02 0 -0.00566049 0.00088816 1 2
15008 1 3.93891 -6.35872 0.02 0 -0.00486131 0.000339684 1 2
15009 1 4.11382 -6.49325 0.0116058 0.00274371 -0.000288738 -1.18574e-05 1.03377 0
15010 1 3.99958 -6.32714 0.02 0 -0.00348096 0.00061723 1.0221 2
15011 1 4.16938 -6.34564 0.0120078 0.00264314 -0.000216484 -5.09241e-05 1.03597 0
15012 1 3.99967 -6.60202 0.02 0 -0.0043004 0.000825059 1.02343 2
15015 1 4.26974 -6.22147 0.0128124 0.00349497 6.13222e-06 -7.59267e-05 1.03559 0
15013 1 4.2898 -6.44469 0.0120001 0.0033851 -0.000154823 -5.97927e-05 1.03633 0
15014 1 4.42504 -6.48916 0.0126689 0.00277285 -7.14026e-05 -3.08384e-05 1.03274 0
15016 1 4.41103 -6.29652 0.0145213 0.00375008 -2.99645e-05 -2.5361e-05 1.0325 0
15037 1 4.40434 -6.10074 0.0151808 0.00411111 8.23113e-06 -1.52865e-06 1.03166 0
14997 1 4.57976 -6.5412 0.0113205 0.00218456 -3.39036e-05 -1.53659e-05 1.03027 0
15019 1 4.54673 -6.15937 0.0154209 0.00418319 -1.37613e-05 -1.66626e-06 1.03007 0
15017 1 4.55958 -6.35337 0.0141075 0.0033853 -2.20832e-05 -1.26875e-05 1.03042 0
15018 1 4.71153 -6.41542 0.0125902 0.00270386 -1.39372e-05 -4.46495e-06 1.02986 0
15020 1 4.685 -6.21763 0.0146931 0.00382301 -9.85551e-06 -1.06782e-06 1.02983 0
14311 1 4.84424 -6.10871 0.0146595 0.00397709 -5.29892e-06 2.03021e-06 1.02983 0
14312 1 4.83524 -6.27387 0.0134513 0.00319968 -6.19963e-06 1.33904e-06 1.0299 0
14313 1 4.8762 -6.43154 0.0112719 0.00221597 -5.5263e-06 9.60093e-07 1.02974 0
14314 1 5.00926 -6.12083 0.013858 0.00353261 -3.47269e-06 2.4279e-06 1.02982 0
14302 1 5.04143 -6.43473 0.010226 0.00183436 -2.30173e-06 2.31485e-06 1.02957 0
14318 1 5.01165 -6.27567 0.0124646 0.00273754 -3.34983e-06 2.6848e-06 1.02982 0
14306 1 5.19968 -6.53476 0.00775664 0.00108731 -1.75788e-06 2.27479e-06 1.02908 0
14329 1 5.18102 -6.17679 0.0126378 0.00285175 -3.36284e-06 3.17322e-06 1.02957 0