ITEM: TIMESTEP
15000
ITEM: NUMBER OF ATOMS
10448
ITEM: BOX BOUNDS ff ff pp
0.0000000000000000e+00 2.2000000000000000e+01
-1.0000000000000000e+01 1.0000000000000000e+01
-2.0000000000000000e-02 2.0000000000000000e-02
ITEM: ATOMS id type x y vx vy fx fy c_den c_phase
1501 2 2 -10 0 0 0 0 1 5
1535 2 2 -9.8 0 0 0 0 1 5
1569 2 2 -9.6 0 0 0 0 1 5
1502 2 2.2 -10 0 0 0 0 1 5
1503 2 2.4 -10 0 0 0 0 1 5
1536 2 2.2 -9.8 0 0 0 0 1 5
1537 2 2.4 -9.8 0 0 0 0 1 5
1570 2 2.2 -9.6 0 0 0 0 1 5
1571 2 2.4 -9.6 0 0 0 0 1 5
1504 2 2.6 -10 0 0 0 0 1 5
1505 2 2.8 -10 0 0 0 0 1 5
1538 2 2.6 -9.8 0 0 0 0 1 5
1539 2 2.8 -9.8 0 0 0 0 1 5
1572 2 2.6 -9.6 0 0 0 0 1 5
1573 2 2.8 -9.6 0 0 0 0 1 5
1506 2 3 -10 0 0 0 0 1 5
1540 2 3 -9.8 0 0 0 0 1 5
1574 2 3 -9.6 0 0 0 0 1 5
1507 2 3.2 -10 0 0 0 0 1 5
1541 2 3.2 -9.8 0 0 0 0 1 5
1575 2 3.2 -9.6 0 0 0 0 1 5
1508 2 3.4 -10 0 0 0 0 1 5
1542 2 3.4 -9.8 0 0 0 0 1 5
1576 2 3.4 -9.6 0 0 0 0 1 5
1509 2 3.6 -10 0 0 0 0 1 5
1543 2 3.6 -9.8 0 0 0 0 1 5
1577 2 3.6 -9.6 0 0 0 0 1 5
1510 2 3.8 -10 0 0 0 0 1 5
1544 2 3.8 -9.8 0 0 0 0 1 5
1578 2 3.8 -9.6 0 0 0 0 1 5
1511 2 4 -10 0 0 0 0 1 5
1512 2 4.2 -10 0 0 0 0 1 5
1545 2 4 -9.8 0 0 0 0 1 5
1546 2 4.2 -9.8 0 0 0 0 1 5
1579 2 4 -9.6 0 0 0 0 1 5
1580 2 4.2 -9.6 0 0 0 0 1 5
1513 2 4.4 -10 0 0 0 0 1 5
1514 2 4.6 -10 0 0 0 0 1 5
1547 2 4.4 -9.8 0 0 0 0 1 5
1548 2 4.6 -9.8 0 0 0 0 1 5
1581 2 4.4 -9.6 0 0 0 0 1 5
1582 2 4.6 -9.6 0 0 0 0 1 5
1515 2 4.8 -10 0 0 0 0 1 5
1516 2 5 -10 0 0 0 0 1 5
1549 2 4.8 -9.8 0 0 0 0 1 5
1550 2 5 -9.8 0 0 0 0 1 5
1583 2 4.8 -9.6 0 0 0 0 1 5
1584 2 5 -9.6 0 0 0 0 1 5
1517 2 5.2 -10 0 0 0 0 1 5
1518 2 5.4 -10 0 0 0 0 1 5
1551 2 5.2 -9.8 0 0 0 0 1 5
1552 2 5.4 -9.8 0 0 0 0 1 5
1585 2 5.2 -9.6 0 0 0 0 1 5
1586 2 5.4 -9.6 0 0 0 0 1 5
1519 2 5.6 -10 0 0 0 0 1 5
1553 2 5.6 -9.8 0 0 0 0 1 5
1587 2 5.6 -9.6 0 0 0 0 1 5
1520 2 5.8 -10 0 0 0 0 1 5
1554 2 5.8 -9.8 0 0 0 0 1 5
1588 2 5.8 -9.6 0 0 0 0 1 5
1521 2 6 -10 0 0 0 0 1 5
1555 2 6 -9.8 0 0 0 0 1 5
1589 2 6 -9.6 0 0 0 0 1 5
1522 2 6.2 -10 0 0 0 0 1 5
1523 2 6.4 -10 0 0 0 0 1 5
1556 2 6.2 -9.8 0 0 0 0 1 5
1557 2 6.4 -9.8 0 0 0 0 1 5
1590 2 6.2 -9.6 0 0 0 0 1 5
1591 2 6.4 -9.6 0 0 0 0 1 5
1524 2 6.6 -10 0 0 0 0 1 5
1525 2 6.8 -10 0 0 0 0 1 5
1558 2 6.6 -9.8 0 0 0 0 1 5
1559 2 6.8 -9.8 0 0 0 0 1 5
1592 2 6.6 -9.6 0 0 0 0 1 5
1593 2 6.8 -9.6 0 0 0 0 1 5
1526 2 7 -10 0 0 0 0 1 5
1527 2 7.2 -10 0 0 0 0 1 5
1560 2 7 -9.8 0 0 0 0 1 5
1561 2 7.2 -9.8 0 0 0 0 1 5
1594 2 7 -9.6 0 0 0 0 1 5
1595 2 7.2 -9.6 0 0 0 0 1 5
1603 2 2 -9.4 0 0 0 0 1 5
1637 2 2 -9.2 0 0 0 0 1 5
1604 2 2.2 -9.4 0 0 0 0 1 5
1605 2 2.4 -9.4 0 0 0 0 1 5
1638 2 2.2 -9.2 0 0 0 0 1 5
1639 2 2.4 -9.2 0 0 0 0 1 5
1606 2 2.6 -9.4 0 0 0 0 1 5
1607 2 2.8 -9.4 0 0 0 0 1 5
1640 2 2.6 -9.2 0 0 0 0 1 5
1641 2 2.8 -9.2 0 0 0 0 1 5
1608 2 3 -9.4 0 0 0 0 1 5
1642 2 3 -9.2 0 0 0 0 1 5
1609 2 3.2 -9.4 0 0 0 0 1 5
1643 2 3.2 -9.2 0 0 0 0 1 5
1610 2 3.4 -9.4 0 0 0 0 1 5
1644 2 3.4 -9.2 0 0 0 0 1 5
1611 2 3.6 -9.4 0 0 0 0 1 5
1645 2 3.6 -9.2 0 0 0 0 1 5
1612 2 3.8 -9.4 0 0 0 0 1 5
1646 2 3.8 -9.2 0 0 0 0 1 5
1613 2 4 -9.4 0 0 0 0 1 5
1614 2 4.2 -9.4 0 0 0 0 1 5
1647 2 4 -9.2 0 0 0 0 1 5
1648 2 4.2 -9.2 0 0 0 0 1 5
1615 2 4.4 -9.4 0 0 0 0 1 5
1616 2 4.6 -9.4 0 0 0 0 1 5
1649 2 4.4 -9.2 0 0 0 0 1 5
1650 2 4.6 -9.2 0 0 0 0 1 5
1617 2 4.8 -9.4 0 0 0 0 1 5
1618 2 5 -9.4 0 0 0 0 1 5
1651 2 4.8 -9.2 0 0 0 0 1 5
1652 2 5 -9.2 0 0 0 0 1 5
1619 2 5.2 -9.4 0 0 0 0 1 5
1620 2 5.4 -9.4 0 0 0 0 1 5
1653 2 5.2 -9.2 0 0 0 0 1 5
1654 2 5.4 -9.2 0 0 0 0 1 5
1621 2 5.6 -9.4 0 0 0 0 1 5
1655 2 5.6 -9.2 0 0 0 0 1 5
1622 2 5.8 -9.4 0 0 0 0 1 5
1656 2 5.8 -9.2 0 0 0 0 1 5
1623 2 6 -9.4 0 0 0 0 1 5
1657 2 6 -9.2 0 0 0 0 1 5
1624 2 6.2 -9.4 0 0 0 0 1 5
1625 2 6.4 -9.4 0 0 0 0 1 5
1658 2 6.2 -9.2 0 0 0 0 1 5
1659 2 6.4 -9.2 0 0 0 0 1 5
1626 2 6.6 -9.4 0 0 0 0 1 5
1627 2 6.8 -9.4 0 0 0 0 1 5
1660 2 6.6 -9.2 0 0 0 0 1 5
1661 2 6.8 -9.2 0 0 0 0 1 5
1628 2 7 -9.4 0 0 0 0 1 5
1629 2 7.2 -9.4 0 0 0 0 1 5
1662 2 7 -9.2 0 0 0 0 1 5
1663 2 7.2 -9.2 0 0 0 0 1 5
1671 2 2 -9 0 0 0 0 1 5
1705 2 2 -8.8 0 0 0 0 1 5
1672 2 2.2 -9 0 0 0 0 1 5
1673 2 2.4 -9 0 0 0 0 1 5
1706 2 2.2 -8.8 0 0 0 0 1 5
1707 2 2.4 -8.8 0 0 0 0 1 5
1674 2 2.6 -9 0 0 0 0 1 5
1675 2 2.8 -9 0 0 0 0 1 5
1708 2 2.6 -8.8 0 0 0 0 1 5
1709 2 2.8 -8.8 0 0 0 0 1 5
1676 2 3 -9 0 0 0 0 1 5
1710 2 3 -8.8 0 0 0 0 1 5
1677 2 3.2 -9 0 0 0 0 1 5
1711 2 3.2 -8.8 0 0 0 0 1 5
1678 2 3.4 -9 0 0 0 0 1 5
1712 2 3.4 -8.8 0 0 0 0 1 5
1679 2 3.6 -9 0 0 0 0 1 5
1713 2 3.6 -8.8 0 0 0 0 1 5
1680 2 3.8 -9 0 0 0 0 1 5
1714 2 3.8 -8.8 0 0 0 0 1 5
1681 2 4 -9 0 0 0 0 1 5
1682 2 4.2 -9 0 0 0 0 1 5
1715 2 4 -8.8 0 0 0 0 1 5
1716 2 4.2 -8.8 0 0 0 0 1 5
1683 2 4.4 -9 0 0 0 0 1 5
1684 2 4.6 -9 0 0 0 0 1 5
1717 2 4.4 -8.8 0 0 0 0 1 5
1718 2 4.6 -8.8 0 0 0 0 1 5
1685 2 4.8 -9 0 0 0 0 1 5
1686 2 5 -9 0 0 0 0 1 5
1719 2 4.8 -8.8 0 0 0 0 1 5
1720 2 5 -8.8 0 0 0 0 1 5
1687 2 5.2 -9 0 0 0 0 1 5
1688 2 5.4 -9 0 0 0 0 1 5
1721 2 5.2 -8.8 0 0 0 0 1 5
1722 2 5.4 -8.8 0 0 0 0 1 5
1689 2 5.6 -9 0 0 0 0 1 5
1723 2 5.6 -8.8 0 0 0 0 1 5
1690 2 5.8 -9 0 0 0 0 1 5
1724 2 5.8 -8.8 0 0 0 0 1 5
1691 2 6 -9 0 0 0 0 1 5
1725 2 6 -8.8 0 0 0 0 1 5
1692 2 6.2 -9 0 0 0 0 1 5
1693 2 6.4 -9 0 0 0 0 1 5
1726 2 6.2 -8.8 0 0 0 0 1 5
1727 2 6.4 -8.8 0 0 0 0 1 5
1694 2 6.6 -9 0 0 0 0 1 5
1695 2 6.8 -9 0 0 0 0 1 5
1728 2 6.6 -8.8 0 0 0 0 1 5
1729 2 6.8 -8.8 0 0 0 0 1 5
1696 2 7 -9 0 0 0 0 1 5
1697 2 7.2 -9 0 0 0 0 1 5
1730 2 7 -8.8 0 0 0 0 1 5
1731 2 7.2 -8.8 0 0 0 0 1 5
1739 2 2 -8.6 0 0 0 0 1 5
1773 2 2 -8.4 0 0 0 0 1 5
1740 2 2.2 -8.6 0 0 0 0 1 5
1741 2 2.4 -8.6 0 0 0 0 1 5
1774 2 2.2 -8.4 0 0 0 0 1 5
1775 2 2.4 -8.4 0 0 0 0 1 5
1742 2 2.6 -8.6 0 0 0 0 1 5
1743 2 2.8 -8.6 0 0 0 0 1 5
1776 2 2.6 -8.4 0 0 0 0 1 5
1777 2 2.8 -8.4 0 0 0 0 1 5
1744 2 3 -8.6 0 0 0 0 1 5
1778 2 3 -8.4 0 0 0 0 1 5
1745 2 3.2 -8.6 0 0 0 0 1 5
1779 2 3.2 -8.4 0 0 0 0 1 5
1746 2 3.4 -8.6 0 0 0 0 1 5
1780 2 3.4 -8.4 0 0 0 0 1 5
1747 2 3.6 -8.6 0 0 0 0 1 5
1781 2 3.6 -8.4 0 0 0 0 1 5
1748 2 3.8 -8.6 0 0 0 0 1 5
1782 2 3.8 -8.4 0 0 0 0 1 5
1749 2 4 -8.6 0 0 0 0 1 5
1750 2 4.2 -8.6 0 0 0 0 1 5
1783 2 4 -8.4 0 0 0 0 1 5
1784 2 4.2 -8.4 0 0 0 0 1 5
1751 2 4.4 -8.6 0 0 0 0 1 5
1752 2 4.6 -8.6 0 0 0 0 1 5
1785 2 4.4 -8.4 0 0 0 0 1 5
1786 2 4.6 -8.4 0 0 0 0 1 5
1753 2 4.8 -8.6 0 0 0 0 1 5
1754 2 5 -8.6 0 0 0 0 1 5
1787 2 4.8 -8.4 0 0 0 0 1 5
1788 2 5 -8.4 0 0 0 0 1 5
1755 2 5.2 -8.6 0 0 0 0 1 5
1756 2 5.4 -8.6 0 0 0 0 1 5
1789 2 5.2 -8.4 0 0 0 0 1 5
1790 2 5.4 -8.4 0 0 0 0 1 5
1757 2 5.6 -8.6 0 0 0 0 1 5
1791 2 5.6 -8.4 0 0 0 0 1 5
1758 2 5.8 -8.6 0 0 0 0 1 5
1792 2 5.8 -8.4 0 0 0 0 1 5
1759 2 6 -8.6 0 0 0 0 1 5
1793 2 6 -8.4 0 0 0 0 1 5
1760 2 6.2 -8.6 0 0 0 0 1 5
1761 2 6.4 -8.6 0 0 0 0 1 5
1794 2 6.2 -8.4 0 0 0 0 1 5
1795 2 6.4 -8.4 0 0 0 0 1 5
1762 2 6.6 -8.6 0 0 0 0 1 5
1763 2 6.8 -8.6 0 0 0 0 1 5
1796 2 6.6 -8.4 0 0 0 0 1 5
1797 2 6.8 -8.4 0 0 0 0 1 5
1764 2 7 -8.6 0 0 0 0 1 5
1765 2 7.2 -8.6 0 0 0 0 1 5
1798 2 7 -8.4 0 0 0 0 1 5
1799 2 7.2 -8.4 0 0 0 0 1 5
1807 2 2 -8.2 0 0 0 0 1 5
1841 2 2 -8 0 0 0 0 1 5
1808 2 2.2 -8.2 0 0 0 0 1 5
1809 2 2.4 -8.2 0 0 0 0 1 5
1842 2 2.2 -8 0 0 0 0 1 5
1843 2 2.4 -8 0 0 0 0 1 5
1810 2 2.6 -8.2 0 0 0 0 1 5
1811 2 2.8 -8.2 0 0 0 0 1 5
1844 2 2.6 -8 0 0 0 0 1 5
1845 2 2.8 -8 0 0 0 0 1 5
1812 2 3 -8.2 0 0 0 0 1 5
1846 2 3 -8 0 0 0 0 1 5
1813 2 3.2 -8.2 0 0 0 0 1 5
1847 2 3.2 -8 0 0 0 0 1 5
1814 2 3.4 -8.2 0 0 0 0 1 5
1848 2 3.4 -8 0 0 0 0 1 5
1815 2 3.6 -8.2 0 0 0 0 1 5
1849 2 3.6 -8 0 0 0 0 1 5
1816 2 3.8 -8.2 0 0 0 0 1 5
1850 2 3.8 -8 0 0 0 0 1 5
1817 2 4 -8.2 0 0 0 0 1 5
1818 2 4.2 -8.2 0 0 0 0 1 5
1851 2 4 -8 0 0 0 0 1 5
1852 2 4.2 -8 0 0 0 0 1 5
1819 2 4.4 -8.2 0 0 0 0 1 5
1820 2 4.6 -8.2 0 0 0 0 1 5
1853 2 4.4 -8 0 0 0 0 1 5
1854 2 4.6 -8 0 0 0 0 1 5
1821 2 4.8 -8.2 0 0 0 0 1 5
1822 2 5 -8.2 0 0 0 0 1 5
1855 2 4.8 -8 0 0 0 0 1 5
1856 2 5 -8 0 0 0 0 1 5
1823 2 5.2 -8.2 0 0 0 0 1 5
1824 2 5.4 -8.2 0 0 0 0 1 5
1857 2 5.2 -8 0 0 0 0 1 5
1858 2 5.4 -8 0 0 0 0 1 5
1825 2 5.6 -8.2 0 0 0 0 1 5
1859 2 5.6 -8 0 0 0 0 1 5
1826 2 5.8 -8.2 0 0 0 0 1 5
1860 2 5.8 -8 0 0 0 0 1 5
1827 2 6 -8.2 0 0 0 0 1 5
1861 2 6 -8 0 0 0 0 1 5
1828 2 6.2 -8.2 0 0 0 0 1 5
1829 2 6.4 -8.2 0 0 0 0 1 5
1862 2 6.2 -8 0 0 0 0 1 5
1863 2 6.4 -8 0 0 0 0 1 5
1830 2 6.6 -8.2 0 0 0 0 1 5
1831 2 6.8 -8.2 0 0 0 0 1 5
1864 2 6.6 -8 0 0 0 0 1 5
1865 2 6.8 -8 0 0 0 0 1 5
1832 2 7 -8.2 0 0 0 0 1 5
1833 2 7.2 -8.2 0 0 0 0 1 5
1866 2 7 -8 0 0 0 0 1 5
1867 2 7.2 -8 0 0 0 0 1 5
1875 2 2 -7.8 0 0 0 0 1 5
1909 2 2 -7.6 0 0 0 0 1 5
1943 2 2 -7.4 0 0 0 0 1.00173 5
1876 2 2.2 -7.8 0 0 0 0 1 5
1877 2 2.4 -7.8 0 0 0 0 1 5
1910 2 2.2 -7.6 0 0 0 0 1 5
1911 2 2.4 -7.6 0 0 0 0 1 5
1944 2 2.2 -7.4 0 0 0 0 0.999821 5
1945 2 2.4 -7.4 0 0 0 0 1.00845 5
1878 2 2.6 -7.8 0 0 0 0 1 5
1879 2 2.8 -7.8 0 0 0 0 1 5
1912 2 2.6 -7.6 0 0 0 0 1 5
1913 2 2.8 -7.6 0 0 0 0 1 5
1946 2 2.6 -7.4 0 0 0 0 0.999915 5
1947 2 2.8 -7.4 0 0 0 0 0.998436 5
1880 2 3 -7.8 0 0 0 0 1 5
1914 2 3 -7.6 0 0 0 0 1 5
1948 2 3 -7.4 0 0 0 0 0.9988 5
1881 2 3.2 -7.8 0 0 0 0 1 5
1915 2 3.2 -7.6 0 0 0 0 1 5
1949 2 3.2 -7.4 0 0 0 0 1.00087 5
1882 2 3.4 -7.8 0 0 0 0 1 5
1916 2 3.4 -7.6 0 0 0 0 1 5
1950 2 3.4 -7.4 0 0 0 0 0.999158 5
1883 2 3.6 -7.8 0 0 0 0 1 5
1917 2 3.6 -7.6 0 0 0 0 1 5
1951 2 3.6 -7.4 0 0 0 0 1.00026 5
1884 2 3.8 -7.8 0 0 0 0 1 5
1918 2 3.8 -7.6 0 0 0 0 1 5
1952 2 3.8 -7.4 0 0 0 0 1.0011 5
1885 2 4 -7.8 0 0 0 0 1 5
1886 2 4.2 -7.8 0 0 0 0 1 5
1919 2 4 -7.6 0 0 0 0 1 5
1920 2 4.2 -7.6 0 0 0 0 1 5
1953 2 4 -7.4 0 0 0 0 1.01168 5
1954 2 4.2 -7.4 0 0 0 0 1.02391 5
1887 2 4.4 -7.8 0 0 0 0 1 5
1888 2 4.6 -7.8 0 0 0 0 1 5
1921 2 4.4 -7.6 0 0 0 0 1 5
1922 2 4.6 -7.6 0 0 0 0 1 5
1955 2 4.4 -7.4 0 0 0 0 1.02241 5
1956 2 4.6 -7.4 0 0 0 0 1.01701 5
1889 2 4.8 -7.8 0 0 0 0 1 5
1890 2 5 -7.8 0 0 0 0 1 5
1923 2 4.8 -7.6 0 0 0 0 1 5
1924 2 5 -7.6 0 0 0 0 1 5
1957 2 4.8 -7.4 0 0 0 0 1.01639 5
1958 2 5 -7.4 0 0 0 0 1.01584 5
1891 2 5.2 -7.8 0 0 0 0 1 5
1892 2 5.4 -7.8 0 0 0 0 1 5
1925 2 5.2 -7.6 0 0 0 0 1 5
1926 2 5.4 -7.6 0 0 0 0 1 5
1959 2 5.2 -7.4 0 0 0 0 1.01581 5
1960 2 5.4 -7.4 0 0 0 0 1.01544 5
1893 2 5.6 -7.8 0 0 0 0 1 5
1927 2 5.6 -7.6 0 0 0 0 1 5
1961 2 5.6 -7.4 0 0 0 0 1.01537 5
1894 2 5.8 -7.8 0 0 0 0 1 5
1928 2 5.8 -7.6 0 0 0 0 1 5
1962 2 5.8 -7.4 0 0 0 0 1.01536 5
1895 2 6 -7.8 0 0 0 0 1 5
1929 2 6 -7.6 0 0 0 0 1 5
1963 2 6 -7.4 0 0 0 0 1.01515 5
1896 2 6.2 -7.8 0 0 0 0 1 5
1897 2 6.4 -7.8 0 0 0 0 1 5
1930 2 6.2 -7.6 0 0 0 0 1 5
1931 2 6.4 -7.6 0 0 0 0 1 5
1964 2 6.2 -7.4 0 0 0 0 1.0151 5
1965 2 6.4 -7.4 0 0 0 0 1.01483 5
1898 2 6.6 -7.8 0 0 0 0 1 5
1899 2 6.8 -7.8 0 0 0 0 1 5
1932 2 6.6 -7.6 0 0 0 0 1 5
1933 2 6.8 -7.6 0 0 0 0 1 5
1966 2 6.6 -7.4 0 0 0 0 1.01483 5
1967 2 6.8 -7.4 0 0 0 0 1.01468 5
1900 2 7 -7.8 0 0 0 0 1 5
1901 2 7.2 -7.8 0 0 0 0 1 5
1934 2 7 -7.6 0 0 0 0 1 5
1935 2 7.2 -7.6 0 0 0 0 1 5
1968 2 7 -7.4 0 0 0 0 1.01474 5
1969 2 7.2 -7.4 0 0 0 0 1.01476 5
1977 2 2 -7.2 0 0 0 0 1.00465 5
2011 2 2 -7 0 0 0 0 1.00471 5
1978 2 2.2 -7.2 0 0 0 0 0.999058 5
1979 2 2.4 -7.2 0 0 0 0 1.001 5
2012 2 2.2 -7 0 0 0 0 0.999721 5
2013 2 2.4 -7 0 0 0 0 1.00012 5
1980 2 2.6 -7.2 0 0 0 0 1.00111 5
1981 2 2.8 -7.2 0 0 0 0 0.997905 5
2014 2 2.6 -7 0 0 0 0 1.00058 5
2015 2 2.8 -7 0 0 0 0 0.999153 5
1982 2 3 -7.2 0 0 0 0 1.00018 5
2016 2 3 -7 0 0 0 0 1.00009 5
1983 2 3.2 -7.2 0 0 0 0 1.00111 5
2017 2 3.2 -7 0 0 0 0 1.00051 5
1984 2 3.4 -7.2 0 0 0 0 0.998306 5
2018 2 3.4 -7 0 0 0 0 0.99935 5
1985 2 3.6 -7.2 0 0 0 0 1.00118 5
2019 2 3.6 -7 0 0 0 0 1.00112 5
1986 2 3.8 -7.2 0 0 0 0 1.00461 5
2020 2 3.8 -7 0 0 0 0 1.00473 5
1987 2 4 -7.2 0 0 0 0 1.01129 5
1988 2 4.2 -7.2 0 0 0 0 1.02082 5
2021 2 4 -7 0 0 0 0 1.01157 5
2022 2 4.2 -7 0 0 0 0 1.02022 5
1989 2 4.4 -7.2 0 0 0 0 1.02228 5
1990 2 4.6 -7.2 0 0 0 0 1.01803 5
2023 2 4.4 -7 0 0 0 0 1.02237 5
2024 2 4.6 -7 0 0 0 0 1.0187 5
1991 2 4.8 -7.2 0 0 0 0 1.01681 5
1992 2 5 -7.2 0 0 0 0 1.01634 5
2025 2 4.8 -7 0 0 0 0 1.01715 5
2026 2 5 -7 0 0 0 0 1.01673 5
1993 2 5.2 -7.2 0 0 0 0 1.01624 5
1994 2 5.4 -7.2 0 0 0 0 1.01591 5
2027 2 5.2 -7 0 0 0 0 1.0166 5
2028 2 5.4 -7 0 0 0 0 1.01627 5
1995 2 5.6 -7.2 0 0 0 0 1.01576 5
2029 2 5.6 -7 0 0 0 0 1.01606 5
1996 2 5.8 -7.2 0 0 0 0 1.01562 5
2030 2 5.8 -7 0 0 0 0 1.01587 5
1997 2 6 -7.2 0 0 0 0 1.01541 5
2031 2 6 -7 0 0 0 0 1.01565 5
1998 2 6.2 -7.2 0 0 0 0 1.01529 5
1999 2 6.4 -7.2 0 0 0 0 1.01512 5
2032 2 6.2 -7 0 0 0 0 1.01549 5
2033 2 6.4 -7 0 0 0 0 1.01532 5
2000 2 6.6 -7.2 0 0 0 0 1.015 5
2001 2 6.8 -7.2 0 0 0 0 1.01494 5
2034 2 6.6 -7 0 0 0 0 1.01521 5
2035 2 6.8 -7 0 0 0 0 1.01514 5
2002 2 7 -7.2 0 0 0 0 1.01494 5
2003 2 7.2 -7.2 0 0 0 0 1.01492 5
2036 2 7 -7 0 0 0 0 1.01509 5
2037 2 7.2 -7 0 0 0 0 1.01505 5
10845 1 2.00188 -6.75103 0.02 0 -0.00518341 -0.000597611 1 2
10847 1 2.00738 -6.56461 0.02 0 -0.000430546 -5.39402e-05 1 2
10846 1 2.198 -6.76478 0.02 0 -0.0028187 -0.000354269 1 2
10848 1 2.20799 -6.57203 0.02 0 0.00044394 0.000616135 1 2
10849 1 2.39364 -6.72967 0.02 0 -0.00205408 -0.000383608 1 2
10851 1 2.41949 -6.55761 0.02 0 0.000191881 0.000530435 1 2
10850 1 2.59776 -6.77955 0.02 0 -0.00317519 -0.000496704 1 2
10852 1 2.61839 -6.58151 0.02 0 4.92588e-05 0.000409219 1 2
10853 1 2.81903 -6.76313 0.02 0 -0.00303437 -0.000363882 1 2
10855 1 2.81689 -6.58016 0.02 0 -5.57526e-05 0.000265683 1 2
10854 1 3.01907 -6.73379 0.02 0 -0.00239426 -0.000356512 1 2
10856 1 3.01931 -6.55034 0.02 0 0.00016182 0.000325275 1 2
10857 1 3.2136 -6.7694 0.02 0 -0.00316898 -0.000432203 1 2
10859 1 3.21327 -6.56871 0.02 0 0.000172248 0.000382128 1 2
10858 1 3.42513 -6.75794 0.02 0 -0.00312548 -0.000390107 1 2
10860 1 3.40244 -6.57403 0.02 0 9.68146e-05 0.000396234 1 2
10861 1 3.62039 -6.73064 0.02 0 -0.00270088 -0.000245428 1 2
10863 1 3.6048 -6.55615 0.02 0 -6.9637e-05 0.000396398 1 2
10862 1 3.81303 -6.76686 0.02 0 -0.00537638 -0.000538799 1 2
10501 1 3.99981 -6.5898 0.02 0 -0.00268234 0.000620709 1.01565 2
10502 1 3.99999 -6.76149 0.02 0 -0.00915293 -7.96578e-05 1.0107 2
10864 1 3.82683 -6.58062 0.02 0 -0.0019742 0.000354884 1 2
10503 1 4.11797 -6.76145 0.00933478 0.000506313 0.000674869 0.000302686 1.02614 0
10504 1 4.24466 -6.63275 0.0122003 0.0025786 9.15114e-06 0.000124613 1.025 0
10505 1 4.1325 -6.52097 0.0146192 0.00295767 -0.000246884 0.0001275 1.0239 0
10506 1 4.30599 -6.47763 0.014746 0.00387443 -6.24618e-05 2.53424e-05 1.02273 0
10507 1 4.30013 -6.78785 0.0068069 -7.08713e-05 0.00015703 6.34662e-05 1.0275 0
10508 1 4.43458 -6.62933 0.0114083 0.00210904 4.86469e-06 2.30101e-05 1.02039 0
10509 1 4.45919 -6.45084 0.0148125 0.00356092 -8.43588e-06 2.04656e-05 1.0196 0
10511 1 4.54033 -6.74536 0.00719182 0.000755594 6.56906e-06 1.4555e-05 1.01896 0
10512 1 4.625 -6.57615 0.0115281 0.00213989 -1.98185e-06 1.84849e-05 1.01788 0
10515 1 4.77189 -6.59228 0.0100089 0.00148356 -8.7125e-06 1.19785e-05 1.01736 0
10519 1 4.72225 -6.79482 0.00485963 0.000277068 -6.62034e-06 7.81542e-06 1.01821 0
10516 1 4.98018 -6.49429 0.0106609 0.00158098 -1.22116e-05 7.56854e-06 1.01747 0
10174 1 4.88901 -6.67473 0.00699918 0.00080993 -9.30744e-06 8.03767e-06 1.01708 0
10173 1 5.12935 -6.53501 0.00908297 0.00104089 -8.82407e-06 4.98013e-06 1.01712 0
10178 1 5.02549 -6.70207 0.00552712 0.000369965 -9.362e-06 5.65757e-06 1.01712 0
10182 1 5.26913 -6.59325 0.00724138 0.000568703 -4.04411e-06 2.66988e-06 1.01671 0
10189 1 5.15034 -6.78481 0.00343894 -5.37544e-05 -6.03678e-06 3.33022e-06 1.01742 0
3101 1 5.35625 -6.70812 0.00440132 0.000138698 -1.49009e-06 1.49068e-06 1.0165 0
3103 1 5.53824 -6.6325 0.00554437 0.000263671 4.43357e-06 -1.65293e-07 1.0162 0
3109 1 5.51447 -6.80843 0.00262178 -0.000159972 1.14106e-06 -3.22462e-07 1.01655 0
3105 1 5.71432 -6.59911 0.00573057 0.000292863 9.33241e-06 -1.52827e-06 1.01597 0
3111 1 5.88839 -6.59306 0.00540261 0.000265868 1.18241e-05 -2.18009e-06 1.01581 0
3113 1 5.78195 -6.76457 0.00278413 -8.71116e-05 5.62913e-06 -1.60015e-06 1.01625 0
3106 1 6.09172 -6.58662 0.00508948 0.00023108 1.28074e-05 -2.54267e-06 1.01559 0
3116 1 5.98182 -6.75187 0.00269554 -8.69925e-05 7.339e-06 -2.07824e-06 1.01599 0
3114 1 6.25772 -6.5609 0.00518754 0.000203859 1.27758e-05 -2.68624e-06 1.01545 0
3117 1 6.17631 -6.75438 0.00245155 -8.65349e-05 7.30701e-06 -2.10218e-06 1.0158 0
3112 1 6.46288 -6.56735 0.00479747 0.000166546 1.08139e-05 -2.37655e-06 1.01527 0
3118 1 6.35919 -6.72565 0.00267487 -6.66958e-05 7.53204e-06 -2.12503e-06 1.01558 0
3115 1 6.64302 -6.53969 0.00495127 0.000144418 9.31135e-06 -2.1361e-06 1.01517 0
3119 1 6.53583 -6.7551 0.00217843 -0.000116091 5.75549e-06 -1.74097e-06 1.01552 0
3120 1 6.72061 -6.66553 0.00319339 2.48065e-05 6.30173e-06 -1.62891e-06 1.01515 0
3121 1 6.82745 -6.77254 0.00186364 -0.000142472 3.75156e-06 -1.12408e-06 1.01541 0
3122 1 6.99505 -6.66431 0.0030275 2.92643e-05 3.93526e-06 -9.07203e-07 1.01505 0
10362 1 4.36522 -0.339176 0.0158789 0.000105219 -1.52908e-06 -7.1917e-07 1.01498 0
3123 1 7.13167 -6.75998 0.00188653 -0.000100584 2.07863e-06 -4.30215e-07 1.01523 0
3124 1 7.31964 -6.72621 0.0022018 -7.29796e-05 1.28381e-06 -5.92848e-08 1.01513 0
3152 1 7.18697 -6.53945 0.00451187 9.19373e-05 3.50241e-06 -4.00059e-07 1.01494 0
10865 1 2.02264 -6.37867 0.02 0 5.99936e-05 4.80529e-05 1 2
10866 1 2.02863 -6.19455 0.02 0 4.78515e-06 5.51325e-06 1 2
10867 1 2.22075 -6.38701 0.02 0 0.000164079 0.000192482 1 2
10868 1 2.25753 -6.20618 0.02 0 1.19646e-05 2.32092e-05 1 2
10869 1 2.42927 -6.38021 0.02 0 0.000101639 0.000154634 1 2
10871 1 2.47547 -6.19941 0.02 0 7.48958e-06 1.87296e-05 1 2
10870 1 2.63284 -6.38326 0.02 0 0.000102305 0.000152765 1 2
10872 1 2.67806 -6.18549 0.02 0 5.77342e-06 1.46991e-05 1 2
10873 1 2.82577 -6.39432 0.02 0 0.000106313 0.000130481 1 2
10875 1 2.87345 -6.19539 0.02 0 6.93211e-06 1.75053e-05 1 2
10874 1 3.02216 -6.35838 0.02 0 7.93414e-05 0.000102978 1 2
10876 1 3.07049 -6.16162 0.02 0 3.42451e-06 9.3969e-06 1 2
10877 1 3.21983 -6.37339 0.02 0 9.5473e-05 0.00013046 1 2
10879 1 3.26381 -6.18031 0.02 0 5.21673e-06 1.3357e-05 1 2
10878 1 3.42738 -6.38819 0.02 0 9.78107e-05 0.000137357 1 2
10880 1 3.44995 -6.19007 0.02 0 -1.52669e-06 1.64677e-05 1 2
10881 1 3.6556 -6.38878 0.02 0 -0.000430406 0.000170533 1 2
10883 1 3.63787 -6.20412 0.02 0 -0.00048538 2.00474e-05 1 2
10521 1 4.01162 -6.22314 0.0142905 0.00152425 -2.92534e-05 2.80011e-05 1.01734 0
10522 1 3.99975 -6.40364 0.02 0 -0.00258946 0.0007236 1.01627 2
10882 1 3.86771 -6.40489 0.02 0 -0.00259908 0.000215559 1 2
10884 1 3.8423 -6.22343 0.02 0 -0.0029694 -1.00153e-05 1 2
10523 1 4.18158 -6.33741 0.0145621 0.00381858 -0.000127822 -1.93979e-05 1.0224 0
10524 1 4.18231 -6.15468 0.0142747 0.00344046 2.22771e-05 -2.22435e-07 1.02055 0
10525 1 4.34044 -6.28352 0.0157777 0.00443625 -9.88703e-06 2.19738e-05 1.0201 0
10526 1 4.35011 -6.09785 0.0161821 0.00433553 1.35368e-05 2.94582e-05 1.01881 0
10527 1 4.49612 -6.23861 0.0161612 0.00432534 -4.31677e-06 3.04098e-05 1.01828 0
10528 1 4.51391 -6.03391 0.0167418 0.00450359 -1.53754e-05 3.09859e-05 1.0177 0
10510 1 4.60482 -6.40321 0.014601 0.00334455 -5.787e-06 2.14288e-05 1.01823 0
10513 1 4.73894 -6.32598 0.014616 0.00330143 -1.30337e-05 1.5672e-05 1.01797 0
10529 1 4.64596 -6.17563 0.016094 0.00417221 -1.34476e-05 2.13016e-05 1.01783 0
10530 1 4.69182 -6.00612 0.0166498 0.00445631 -2.2859e-05 1.7906e-05 1.01762 0
10531 1 4.82248 -6.16261 0.015517 0.00375599 -1.66554e-05 9.80348e-06 1.01786 0
10514 1 4.85828 -6.41084 0.0128139 0.00238214 -1.33731e-05 1.04297e-05 1.01782 0
10517 1 4.98196 -6.26193 0.0139439 0.00278788 -1.23286e-05 5.14773e-06 1.01778 0
10532 1 4.95666 -6.06943 0.015617 0.00373133 -1.31516e-05 3.26494e-06 1.0177 0
10535 1 5.11513 -6.10501 0.0147705 0.00313387 -5.76693e-06 3.18439e-07 1.01748 0
10518 1 5.12783 -6.33834 0.0122856 0.00197686 -7.47334e-06 2.9662e-06 1.01743 0
10520 1 5.25568 -6.19845 0.0133157 0.00233166 -5.8466e-07 -8.99126e-08 1.01719 0
10177 1 5.28992 -6.40387 0.0105758 0.00131432 -1.75448e-06 1.56011e-06 1.017 0
10175 1 5.4107 -6.26086 0.0119293 0.00171169 5.18227e-06 -5.40021e-07 1.01687 0
10185 1 5.62452 -6.45961 0.00836471 0.000709125 9.82189e-06 -1.06847e-06 1.01629 0
10181 1 5.44301 -6.4776 0.00876299 0.000805275 3.43471e-06 5.04364e-07 1.01656 0
10176 1 5.55176 -6.12818 0.0127523 0.00197745 1.19862e-05 -8.89002e-07 1.01667 0
10179 1 5.58223 -6.29595 0.0107755 0.00128403 1.0927e-05 -1.09321e-06 1.01657 0
10180 1 5.79113 -6.11502 0.0119651 0.00160973 1.77656e-05 -7.19827e-07 1.01633 0
10183 1 5.75576 -6.28279 0.0102679 0.00111859 1.55144e-05 -1.60126e-06 1.01633 0
10186 1 5.84277 -6.41891 0.00821192 0.00066078 1.50517e-05 -2.14438e-06 1.01608 0
10184 1 5.95287 -6.13118 0.0112553 0.00132259 1.90801e-05 -9.06823e-07 1.01612 0
10187 1 6.14424 -6.14984 0.0104937 0.00104421 1.86624e-05 -1.23179e-06 1.01588 0
10190 1 6.00558 -6.28631 0.00939881 0.000855032 1.79706e-05 -2.06541e-06 1.016 0
3102 1 6.03374 -6.44479 0.00731334 0.000487436 1.5935e-05 -2.61812e-06 1.01581 0
10188 1 6.30599 -6.07904 0.0107678 0.00102497 1.7418e-05 -6.97931e-07 1.01572 0
10192 1 6.2021 -6.33269 0.00831507 0.000601877 1.68701e-05 -2.40968e-06 1.01573 0
3104 1 6.37673 -6.25284 0.00882045 0.000620352 1.5744e-05 -1.96777e-06 1.01561 0
3135 1 6.50002 -6.12045 0.00992707 0.000756075 1.47342e-05 -1.03473e-06 1.01554 0
3107 1 6.37707 -6.41993 0.00686871 0.000356454 1.41719e-05 -2.56771e-06 1.01546 0
3138 1 6.62523 -6.21985 0.00867645 0.000509821 1.24946e-05 -1.47225e-06 1.0154 0
3139 1 6.82078 -6.18299 0.00873978 0.000448875 9.91348e-06 -8.82716e-07 1.01529 0
3108 1 6.58053 -6.38393 0.00694425 0.000323222 1.20107e-05 -2.15365e-06 1.01533 0
3140 1 7.00873 -6.12139 0.00910125 0.000411603 7.72666e-06 -1.5374e-07 1.01519 0
3110 1 6.78237 -6.35987 0.00692572 0.000284005 9.46198e-06 -1.56148e-06 1.01522 0
3150 1 6.85958 -6.52199 0.00496128 0.000150227 7.03492e-06 -1.47766e-06 1.01507 0
3145 1 6.97411 -6.31271 0.00721565 0.000265644 7.27644e-06 -8.20724e-07 1.01515 0
3147 1 7.14899 -6.24572 0.00774159 0.000251448 5.54363e-06 -7.87782e-09 1.0151 0
3151 1 7.03834 -6.47619 0.0053521 0.000147667 5.45461e-06 -8.58251e-07 1.01502 0
10349 1 5.30205 -0.200784 0.0160478 -1.80592e-05 2.43006e-06 3.36262e-06 1.01513 0
3148 1 7.27115 -6.35137 0.00655407 0.000156828 3.78571e-06 1.78247e-07 1.015 0
10005 1 5.96402 -0.0353044 0.0159817 -0.000163664 8.99646e-06 3.72998e-06 1.01499 0
10885 1 2.03677 -6.01156 0.02 0 7.67993e-08 1.35321e-07 1 2
10886 1 2.04941 -5.82135 0.02 0 1.18937e-10 2.32623e-10 1 2
10887 1 2.24081 -6.02146 0.02 0 1.24157e-07 3.44252e-07 1 2
10888 1 2.25668 -5.82821 0.02 0 1.64463e-10 5.73548e-10 1 2
10889 1 2.44489 -6.01249 0.02 0 5.44967e-08 1.9191e-07 1 2
10891 1 2.4685 -5.82207 0.02 0 6.74326e-11 3.1284e-10 1 2
10890 1 2.65044 -5.99312 0.02 0 3e-08 9.77533e-08 1 2
10892 1 2.68417 -5.80529 0.02 0 2.88984e-11 1.7939e-10 1 2
10893 1 2.85784 -5.99713 0.02 0 2.44053e-08 1.0248e-07 1 2
10895 1 2.88772 -5.79812 0.02 0 2.44091e-11 1.61397e-10 1 2
10894 1 3.06135 -5.96557 0.02 0 1.19336e-08 4.51785e-08 1 2
10896 1 3.08762 -5.7706 0.02 0 2.01206e-12 1.696e-11 1 2
10897 1 3.26333 -5.9826 0.02 0 1.72243e-08 7.49187e-08 1 2
10899 1 3.28445 -5.7827 0.02 0 7.26665e-12 5.37201e-11 1 2
10898 1 3.45675 -5.96801 0.02 0 -8.50387e-06 2.20114e-07 1 2
10900 1 3.47591 -5.75519 0.02 0 -1.45474e-05 1.51973e-07 1 2
10901 1 3.64472 -6.00986 0.02 0 -0.000485269 4.13003e-05 1 2
10903 1 3.66157 -5.80721 0.02 0 -0.000493972 3.67925e-06 1 2
10541 1 4.00034 -5.85561 0.0191098 0.000217166 -0.00356099 0.000868663 1.01317 0
10542 1 4.01181 -6.04665 0.0145446 0.00139505 4.4649e-05 -4.02134e-05 1.01684 0
10902 1 3.84762 -6.03906 0.02 0 -0.00297066 0.000441245 1 2
10904 1 3.84871 -5.84507 0.02 0 -0.00230395 0.000222469 1 2
10544 1 4.15642 -5.78383 0.0150025 0.0029373 0.000141191 7.58112e-05 1.01906 0
10543 1 4.17506 -5.97226 0.0150879 0.00284182 0.000132539 -3.81367e-05 1.01987 0
10545 1 4.31927 -5.74043 0.016058 0.00377301 1.25295e-05 5.02898e-05 1.01832 0
10546 1 4.34042 -5.91828 0.0163724 0.00405974 3.12954e-05 3.38829e-05 1.01856 0
10548 1 4.48807 -5.67423 0.0169587 0.00437458 -4.86124e-05 2.88756e-05 1.01711 0
10547 1 4.50518 -5.85304 0.0169686 0.00448499 -3.06839e-05 3.24507e-05 1.01743 0
10533 1 4.84433 -5.92538 0.0166016 0.00441061 -2.02723e-05 7.38502e-06 1.01761 0
10549 1 4.66359 -5.65199 0.0172481 0.00473401 -4.43099e-05 1.50703e-05 1.01707 0
10550 1 4.67481 -5.82816 0.0170747 0.00466731 -3.37741e-05 1.86181e-05 1.01736 0
10551 1 4.83785 -5.74142 0.0170875 0.00472554 -2.53754e-05 6.77321e-06 1.0174 0
10534 1 5.02148 -5.90422 0.0162682 0.00411255 -9.24783e-06 2.64741e-07 1.01748 0
10552 1 5.0074 -5.72062 0.0169121 0.00456113 -9.9736e-06 6.05226e-07 1.01733 0
10536 1 5.24667 -5.9929 0.0150872 0.00323152 1.57461e-06 -1.10942e-06 1.01717 0
10539 1 5.40286 -6.04089 0.0141326 0.00264289 7.70129e-06 -8.78295e-07 1.0169 0
10537 1 5.17468 -5.8345 0.0161813 0.00394443 1.78887e-07 -9.72834e-07 1.01721 0
10555 1 5.1809 -5.65842 0.016791 0.00434607 2.83756e-06 8.67824e-07 1.01707 0
10538 1 5.35039 -5.82416 0.0157303 0.00352897 8.5716e-06 7.06588e-08 1.01692 0
10556 1 5.34271 -5.61463 0.0166049 0.00406276 1.10521e-05 3.18403e-06 1.01682 0
10195 1 5.67469 -6.00478 0.0133858 0.00218189 1.65035e-05 1.52834e-07 1.01649 0
10193 1 5.529 -5.90903 0.0146322 0.00281644 1.37344e-05 4.78536e-07 1.01668 0
10540 1 5.49333 -5.71966 0.0158199 0.0034586 1.46825e-05 2.69193e-06 1.01667 0
10194 1 5.65554 -5.76468 0.0151101 0.00294343 1.79214e-05 2.97795e-06 1.01646 0
10197 1 5.79409 -5.87447 0.0139764 0.00234013 1.92009e-05 1.87724e-06 1.01631 0
10196 1 5.7992 -5.65586 0.0152931 0.0028733 1.98449e-05 5.06561e-06 1.01626 0
10198 1 5.94681 -5.94325 0.0129714 0.00185832 1.98637e-05 1.07331e-06 1.01613 0
10199 1 5.93508 -5.73757 0.0144638 0.00239436 2.01178e-05 3.81582e-06 1.01611 0
10201 1 6.11524 -5.97348 0.0122254 0.00150868 1.9405e-05 5.29552e-07 1.01592 0
10200 1 6.08774 -5.74684 0.0140033 0.00206921 1.95501e-05 3.32262e-06 1.01595 0
10202 1 6.22311 -5.83153 0.0130696 0.00165894 1.84783e-05 1.90888e-06 1.0158 0
10203 1 6.21894 -5.61946 0.0144862 0.00206683 1.79461e-05 4.37095e-06 1.01579 0
10205 1 6.36349 -5.89272 0.0122614 0.00132948 1.68911e-05 9.02632e-07 1.01567 0
10204 1 6.37951 -5.6843 0.0137464 0.0016768 1.62562e-05 2.91472e-06 1.01565 0
10191 1 6.51118 -5.95784 0.0114001 0.00103174 1.4892e-05 1.19951e-07 1.01554 0
10206 1 6.54507 -5.75974 0.0129011 0.00130967 1.42681e-05 1.63936e-06 1.01551 0
10210 1 6.6763 -5.89129 0.011649 0.00095928 1.26087e-05 4.82109e-07 1.01541 0
3136 1 6.74665 -6.03757 0.0102545 0.000682627 1.14368e-05 -3.51119e-07 1.01536 0
10209 1 6.73025 -5.70257 0.0130059 0.00114153 1.17083e-05 1.61771e-06 1.01536 0
3169 1 6.86317 -5.82338 0.011909 0.000848377 1.01932e-05 8.07351e-07 1.01528 0
10212 1 6.97124 -5.66076 0.0129879 0.000888318 8.89634e-06 1.47561e-06 1.01521 0
3137 1 6.95147 -5.96426 0.0106144 0.000610638 8.92157e-06 2.72774e-07 1.01523 0
3170 1 7.08635 -5.77677 0.0120062 0.000667715 7.71339e-06 1.08525e-06 1.01515 0
3141 1 7.22127 -6.08119 0.00927297 0.000327999 5.47064e-06 6.22388e-07 1.01508 0
3172 1 7.15603 -5.92597 0.0107185 0.000487143 6.69419e-06 8.00525e-07 1.01511 0
3171 1 7.25423 -5.69678 0.0124617 0.000557114 6.16914e-06 1.46984e-06 1.01506 0
10694 1 3.85761 -0.296753 0.02 0 -0.00276336 3.16467e-05 1 2
10352 1 5.15693 -0.363269 0.01604 5.82337e-05 3.70835e-10 2.43434e-06 1.01517 0
10354 1 4.96398 -0.093087 0.0159489 3.93129e-06 -8.29878e-07 1.55464e-06 1.01516 0
10905 1 2.08773 -5.62226 0.02 0 0 0 1 2
10906 1 2.10314 -5.41693 0.02 0 0 0 1 2
10907 1 2.27627 -5.62507 0.02 0 0 0 1 2
10908 1 2.29141 -5.40769 0.02 0 0 0 1 2
10909 1 2.46666 -5.62812 0.02 0 0 0 1 2
10910 1 2.47833 -5.42473 0.02 0 0 0 1 2
10911 1 2.66533 -5.61507 0.02 0 0 0 1 2
10912 1 2.67022 -5.41754 0.02 0 0 0 1 2
10915 1 2.86223 -5.39761 0.02 0 0 0 1 2
10913 1 2.86939 -5.5998 0.02 0 0 0 1 2
10914 1 3.07319 -5.57637 0.02 0 0 0 1 2
10916 1 3.05451 -5.37873 0.02 0 0 0 1 2
10917 1 3.27557 -5.57908 0.02 0 -3.55751e-14 -1.27765e-13 1 2
10919 1 3.25093 -5.3784 0.02 0 0 0 1 2
10918 1 3.47257 -5.55207 0.02 0 -1.45951e-05 2.57277e-07 1 2
10920 1 3.45255 -5.35989 0.02 0 -7.62476e-06 1.63623e-07 1 2
10921 1 3.66671 -5.59989 0.02 0 -0.00061232 1.54048e-06 1 2
10923 1 3.66141 -5.39801 0.02 0 -0.000596012 2.12255e-05 1 2
10561 1 4.00743 -5.65147 0.0148655 0.00113899 3.13174e-05 6.73605e-07 1.01428 0
10563 1 4.00572 -5.44099 0.0146862 0.00119212 -1.19405e-05 3.96323e-06 1.01395 0
10565 1 4.00491 -5.23345 0.0149569 0.00110661 1.25339e-05 -2.63058e-05 1.01313 0
10922 1 3.85777 -5.6399 0.02 0 -0.00293264 6.54807e-05 1 2
10924 1 3.85819 -5.42972 0.02 0 -0.00311748 0.000237903 1 2
10562 1 4.16348 -5.58282 0.0140941 0.00264866 2.60069e-06 3.918e-05 1.01833 0
10564 1 4.16366 -5.37919 0.0139668 0.00232493 -1.85589e-05 7.23028e-06 1.01802 0
10567 1 4.32928 -5.37333 0.0158122 0.00339067 -4.72325e-05 5.01785e-06 1.01743 0
10566 1 4.32931 -5.55526 0.015905 0.00361846 -4.11325e-05 3.22691e-05 1.01765 0
10569 1 4.49826 -5.4876 0.0169262 0.00427194 -6.03901e-05 1.3016e-05 1.01674 0
10571 1 4.49155 -5.29957 0.016853 0.00407406 -5.20567e-05 -5.09968e-06 1.01655 0
10553 1 4.84124 -5.55895 0.0173185 0.00488641 -2.73767e-05 4.23142e-06 1.01718 0
10554 1 5.01833 -5.54359 0.0172335 0.00479519 -7.75343e-06 1.39968e-06 1.01715 0
10570 1 4.67227 -5.47702 0.0172974 0.00473658 -4.6979e-05 5.79804e-06 1.01681 0
10572 1 4.66378 -5.29821 0.0172589 0.00464024 -4.06783e-05 -2.76848e-06 1.01656 0
10574 1 4.83522 -5.37101 0.0173954 0.0049292 -2.49992e-05 1.75149e-06 1.01693 0
10576 1 4.82058 -5.18101 0.0173504 0.0048527 -1.76297e-05 1.84131e-06 1.01666 0
10575 1 5.00935 -5.3718 0.0173945 0.00491971 -5.93401e-06 3.94801e-06 1.01697 0
10577 1 4.995 -5.19612 0.0174282 0.0049291 -3.13823e-06 7.52257e-06 1.01677 0
10557 1 5.19129 -5.47127 0.0171823 0.00460683 6.11783e-06 4.0975e-06 1.01691 0
10558 1 5.3603 -5.41727 0.0170728 0.00432703 1.37191e-05 7.45473e-06 1.01666 0
10578 1 5.17535 -5.29002 0.0174029 0.00476043 7.34861e-06 8.61089e-06 1.01676 0
10579 1 5.34581 -5.23828 0.0173605 0.00449199 1.41421e-05 1.16157e-05 1.01652 0
10559 1 5.50564 -5.53425 0.0165166 0.0038232 1.6494e-05 6.22006e-06 1.01656 0
10213 1 5.66874 -5.54754 0.0161091 0.00340166 1.90477e-05 6.61978e-06 1.01638 0
10560 1 5.53175 -5.34516 0.0169826 0.00402592 1.76976e-05 9.96205e-06 1.01641 0