ITEM: TIMESTEP
77000
ITEM: NUMBER OF ATOMS
10759
ITEM: BOX BOUNDS ff ff pp
0.0000000000000000e+00 2.2000000000000000e+01
-1.0000000000000000e+01 1.0000000000000000e+01
-2.0000000000000000e-02 2.0000000000000000e-02
ITEM: ATOMS id type x y vx vy fx fy c_den c_phase
1501 2 2 -10 0 0 0 0 1 4
1551 2 2 -9.8 0 0 0 0 1 4
1601 2 2 -9.6 0 0 0 0 1 4
1502 2 2.2 -10 0 0 0 0 1 4
1503 2 2.4 -10 0 0 0 0 1 4
1552 2 2.2 -9.8 0 0 0 0 1 4
1553 2 2.4 -9.8 0 0 0 0 1 4
1602 2 2.2 -9.6 0 0 0 0 1 4
1603 2 2.4 -9.6 0 0 0 0 1 4
1504 2 2.6 -10 0 0 0 0 1 4
1505 2 2.8 -10 0 0 0 0 1 4
1554 2 2.6 -9.8 0 0 0 0 1 4
1555 2 2.8 -9.8 0 0 0 0 1 4
1604 2 2.6 -9.6 0 0 0 0 1 4
1605 2 2.8 -9.6 0 0 0 0 1 4
1506 2 3 -10 0 0 0 0 1 4
1507 2 3.2 -10 0 0 0 0 1 4
1556 2 3 -9.8 0 0 0 0 1 4
1557 2 3.2 -9.8 0 0 0 0 1 4
1606 2 3 -9.6 0 0 0 0 1 4
1607 2 3.2 -9.6 0 0 0 0 1 4
1508 2 3.4 -10 0 0 0 0 1 4
1509 2 3.6 -10 0 0 0 0 1 4
1558 2 3.4 -9.8 0 0 0 0 1 4
1559 2 3.6 -9.8 0 0 0 0 1 4
1608 2 3.4 -9.6 0 0 0 0 1 4
1609 2 3.6 -9.6 0 0 0 0 1 4
1510 2 3.8 -10 0 0 0 0 1 4
1560 2 3.8 -9.8 0 0 0 0 1 4
1610 2 3.8 -9.6 0 0 0 0 1 4
1511 2 4 -10 0 0 0 0 1 4
1561 2 4 -9.8 0 0 0 0 1 4
1611 2 4 -9.6 0 0 0 0 1 4
1512 2 4.2 -10 0 0 0 0 1 4
1562 2 4.2 -9.8 0 0 0 0 1 4
1612 2 4.2 -9.6 0 0 0 0 1 4
1513 2 4.4 -10 0 0 0 0 1 4
1514 2 4.6 -10 0 0 0 0 1 4
1563 2 4.4 -9.8 0 0 0 0 1 4
1564 2 4.6 -9.8 0 0 0 0 1 4
1613 2 4.4 -9.6 0 0 0 0 1 4
1614 2 4.6 -9.6 0 0 0 0 1 4
1515 2 4.8 -10 0 0 0 0 1 4
1516 2 5 -10 0 0 0 0 1 4
1565 2 4.8 -9.8 0 0 0 0 1 4
1566 2 5 -9.8 0 0 0 0 1 4
1615 2 4.8 -9.6 0 0 0 0 1 4
1616 2 5 -9.6 0 0 0 0 1 4
1517 2 5.2 -10 0 0 0 0 1 4
1518 2 5.4 -10 0 0 0 0 1 4
1567 2 5.2 -9.8 0 0 0 0 1 4
1568 2 5.4 -9.8 0 0 0 0 1 4
1617 2 5.2 -9.6 0 0 0 0 1 4
1618 2 5.4 -9.6 0 0 0 0 1 4
1519 2 5.6 -10 0 0 0 0 1 4
1520 2 5.8 -10 0 0 0 0 1 4
1569 2 5.6 -9.8 0 0 0 0 1 4
1570 2 5.8 -9.8 0 0 0 0 1 4
1619 2 5.6 -9.6 0 0 0 0 1 4
1620 2 5.8 -9.6 0 0 0 0 1 4
1521 2 6 -10 0 0 0 0 1 4
1522 2 6.2 -10 0 0 0 0 1 4
1571 2 6 -9.8 0 0 0 0 1 4
1572 2 6.2 -9.8 0 0 0 0 1 4
1621 2 6 -9.6 0 0 0 0 1 4
1622 2 6.2 -9.6 0 0 0 0 1 4
1523 2 6.4 -10 0 0 0 0 1 4
1524 2 6.6 -10 0 0 0 0 1 4
1573 2 6.4 -9.8 0 0 0 0 1 4
1574 2 6.6 -9.8 0 0 0 0 1 4
1623 2 6.4 -9.6 0 0 0 0 1 4
1624 2 6.6 -9.6 0 0 0 0 1 4
1525 2 6.8 -10 0 0 0 0 1 4
1526 2 7 -10 0 0 0 0 1 4
1575 2 6.8 -9.8 0 0 0 0 1 4
1576 2 7 -9.8 0 0 0 0 1 4
1625 2 6.8 -9.6 0 0 0 0 1 4
1626 2 7 -9.6 0 0 0 0 1 4
1527 2 7.2 -10 0 0 0 0 1 4
1577 2 7.2 -9.8 0 0 0 0 1 4
1627 2 7.2 -9.6 0 0 0 0 1 4
1528 2 7.4 -10 0 0 0 0 1 4
1529 2 7.6 -10 0 0 0 0 1 4
1578 2 7.4 -9.8 0 0 0 0 1 4
1579 2 7.6 -9.8 0 0 0 0 1 4
1628 2 7.4 -9.6 0 0 0 0 1 4
1629 2 7.6 -9.6 0 0 0 0 1 4
1530 2 7.8 -10 0 0 0 0 1 4
1531 2 8 -10 0 0 0 0 1 4
1580 2 7.8 -9.8 0 0 0 0 1 4
1581 2 8 -9.8 0 0 0 0 1 4
1630 2 7.8 -9.6 0 0 0 0 1 4
1631 2 8 -9.6 0 0 0 0 1 4
1532 2 8.2 -10 0 0 0 0 1 4
1533 2 8.4 -10 0 0 0 0 1 4
1582 2 8.2 -9.8 0 0 0 0 1 4
1583 2 8.4 -9.8 0 0 0 0 1 4
1632 2 8.2 -9.6 0 0 0 0 1 4
1633 2 8.4 -9.6 0 0 0 0 1 4
1534 2 8.6 -10 0 0 0 0 1 4
1535 2 8.8 -10 0 0 0 0 1 4
1584 2 8.6 -9.8 0 0 0 0 1 4
1585 2 8.8 -9.8 0 0 0 0 1 4
1634 2 8.6 -9.6 0 0 0 0 1 4
1635 2 8.8 -9.6 0 0 0 0 1 4
1536 2 9 -10 0 0 0 0 1 4
1537 2 9.2 -10 0 0 0 0 1 4
1586 2 9 -9.8 0 0 0 0 1 4
1587 2 9.2 -9.8 0 0 0 0 1 4
1636 2 9 -9.6 0 0 0 0 1 4
1637 2 9.2 -9.6 0 0 0 0 1 4
1538 2 9.4 -10 0 0 0 0 1 4
1539 2 9.6 -10 0 0 0 0 1 4
1588 2 9.4 -9.8 0 0 0 0 1 4
1589 2 9.6 -9.8 0 0 0 0 1 4
1638 2 9.4 -9.6 0 0 0 0 1 4
1639 2 9.6 -9.6 0 0 0 0 1 4
1540 2 9.8 -10 0 0 0 0 1 4
1590 2 9.8 -9.8 0 0 0 0 1 4
1640 2 9.8 -9.6 0 0 0 0 1 4
1541 2 10 -10 0 0 0 0 1 4
1591 2 10 -9.8 0 0 0 0 1 4
1641 2 10 -9.6 0 0 0 0 1 4
1542 2 10.2 -10 0 0 0 0 1 4
1592 2 10.2 -9.8 0 0 0 0 1 4
1642 2 10.2 -9.6 0 0 0 0 1 4
1543 2 10.4 -10 0 0 0 0 1 4
1593 2 10.4 -9.8 0 0 0 0 1 4
1643 2 10.4 -9.6 0 0 0 0 1 4
1544 2 10.6 -10 0 0 0 0 1 4
1594 2 10.6 -9.8 0 0 0 0 1 4
1644 2 10.6 -9.6 0 0 0 0 1 4
1545 2 10.8 -10 0 0 0 0 1 4
1595 2 10.8 -9.8 0 0 0 0 1 4
1645 2 10.8 -9.6 0 0 0 0 1 4
1651 2 2 -9.4 0 0 0 0 1 4
1701 2 2 -9.2 0 0 0 0 1 4
1652 2 2.2 -9.4 0 0 0 0 1 4
1653 2 2.4 -9.4 0 0 0 0 1 4
1702 2 2.2 -9.2 0 0 0 0 1 4
1703 2 2.4 -9.2 0 0 0 0 1 4
1654 2 2.6 -9.4 0 0 0 0 1 4
1655 2 2.8 -9.4 0 0 0 0 1 4
1704 2 2.6 -9.2 0 0 0 0 1 4
1705 2 2.8 -9.2 0 0 0 0 1 4
1656 2 3 -9.4 0 0 0 0 1 4
1657 2 3.2 -9.4 0 0 0 0 1 4
1706 2 3 -9.2 0 0 0 0 1 4
1707 2 3.2 -9.2 0 0 0 0 1 4
1658 2 3.4 -9.4 0 0 0 0 1 4
1659 2 3.6 -9.4 0 0 0 0 1 4
1708 2 3.4 -9.2 0 0 0 0 1 4
1709 2 3.6 -9.2 0 0 0 0 1 4
1660 2 3.8 -9.4 0 0 0 0 1 4
1710 2 3.8 -9.2 0 0 0 0 1 4
1661 2 4 -9.4 0 0 0 0 1 4
1711 2 4 -9.2 0 0 0 0 1 4
1662 2 4.2 -9.4 0 0 0 0 1 4
1712 2 4.2 -9.2 0 0 0 0 1 4
1663 2 4.4 -9.4 0 0 0 0 1 4
1664 2 4.6 -9.4 0 0 0 0 1 4
1713 2 4.4 -9.2 0 0 0 0 1 4
1714 2 4.6 -9.2 0 0 0 0 1 4
1665 2 4.8 -9.4 0 0 0 0 1 4
1666 2 5 -9.4 0 0 0 0 1 4
1715 2 4.8 -9.2 0 0 0 0 1 4
1716 2 5 -9.2 0 0 0 0 1 4
1667 2 5.2 -9.4 0 0 0 0 1 4
1668 2 5.4 -9.4 0 0 0 0 1 4
1717 2 5.2 -9.2 0 0 0 0 1 4
1718 2 5.4 -9.2 0 0 0 0 1 4
1669 2 5.6 -9.4 0 0 0 0 1 4
1670 2 5.8 -9.4 0 0 0 0 1 4
1719 2 5.6 -9.2 0 0 0 0 1 4
1720 2 5.8 -9.2 0 0 0 0 1 4
1671 2 6 -9.4 0 0 0 0 1 4
1672 2 6.2 -9.4 0 0 0 0 1 4
1721 2 6 -9.2 0 0 0 0 1 4
1722 2 6.2 -9.2 0 0 0 0 1 4
1673 2 6.4 -9.4 0 0 0 0 1 4
1674 2 6.6 -9.4 0 0 0 0 1 4
1723 2 6.4 -9.2 0 0 0 0 1 4
1724 2 6.6 -9.2 0 0 0 0 1 4
1675 2 6.8 -9.4 0 0 0 0 1 4
1676 2 7 -9.4 0 0 0 0 1 4
1725 2 6.8 -9.2 0 0 0 0 1 4
1726 2 7 -9.2 0 0 0 0 1 4
1677 2 7.2 -9.4 0 0 0 0 1 4
1727 2 7.2 -9.2 0 0 0 0 1 4
1678 2 7.4 -9.4 0 0 0 0 1 4
1679 2 7.6 -9.4 0 0 0 0 1 4
1728 2 7.4 -9.2 0 0 0 0 1 4
1729 2 7.6 -9.2 0 0 0 0 1 4
1680 2 7.8 -9.4 0 0 0 0 1 4
1681 2 8 -9.4 0 0 0 0 1 4
1730 2 7.8 -9.2 0 0 0 0 1 4
1731 2 8 -9.2 0 0 0 0 1 4
1682 2 8.2 -9.4 0 0 0 0 1 4
1683 2 8.4 -9.4 0 0 0 0 1 4
1732 2 8.2 -9.2 0 0 0 0 1 4
1733 2 8.4 -9.2 0 0 0 0 1 4
1684 2 8.6 -9.4 0 0 0 0 1 4
1685 2 8.8 -9.4 0 0 0 0 1 4
1734 2 8.6 -9.2 0 0 0 0 1 4
1735 2 8.8 -9.2 0 0 0 0 1 4
1686 2 9 -9.4 0 0 0 0 1 4
1687 2 9.2 -9.4 0 0 0 0 1 4
1736 2 9 -9.2 0 0 0 0 1 4
1737 2 9.2 -9.2 0 0 0 0 1 4
1688 2 9.4 -9.4 0 0 0 0 1 4
1689 2 9.6 -9.4 0 0 0 0 1 4
1738 2 9.4 -9.2 0 0 0 0 1 4
1739 2 9.6 -9.2 0 0 0 0 1 4
1690 2 9.8 -9.4 0 0 0 0 1 4
1740 2 9.8 -9.2 0 0 0 0 1 4
1691 2 10 -9.4 0 0 0 0 1 4
1741 2 10 -9.2 0 0 0 0 1 4
1692 2 10.2 -9.4 0 0 0 0 1 4
1742 2 10.2 -9.2 0 0 0 0 1 4
1693 2 10.4 -9.4 0 0 0 0 1 4
1743 2 10.4 -9.2 0 0 0 0 1 4
1694 2 10.6 -9.4 0 0 0 0 1 4
1744 2 10.6 -9.2 0 0 0 0 1 4
1695 2 10.8 -9.4 0 0 0 0 1 4
1745 2 10.8 -9.2 0 0 0 0 1 4
1751 2 2 -9 0 0 0 0 1 4
1801 2 2 -8.8 0 0 0 0 1 4
1752 2 2.2 -9 0 0 0 0 1 4
1753 2 2.4 -9 0 0 0 0 1 4
1802 2 2.2 -8.8 0 0 0 0 1 4
1803 2 2.4 -8.8 0 0 0 0 1 4
1754 2 2.6 -9 0 0 0 0 1 4
1755 2 2.8 -9 0 0 0 0 1 4
1804 2 2.6 -8.8 0 0 0 0 1 4
1805 2 2.8 -8.8 0 0 0 0 1 4
1756 2 3 -9 0 0 0 0 1 4
1757 2 3.2 -9 0 0 0 0 1 4
1806 2 3 -8.8 0 0 0 0 1 4
1807 2 3.2 -8.8 0 0 0 0 1 4
1758 2 3.4 -9 0 0 0 0 1 4
1759 2 3.6 -9 0 0 0 0 1 4
1808 2 3.4 -8.8 0 0 0 0 1 4
1809 2 3.6 -8.8 0 0 0 0 1 4
1760 2 3.8 -9 0 0 0 0 1 4
1810 2 3.8 -8.8 0 0 0 0 1 4
1761 2 4 -9 0 0 0 0 1 4
1811 2 4 -8.8 0 0 0 0 1 4
1762 2 4.2 -9 0 0 0 0 1 4
1812 2 4.2 -8.8 0 0 0 0 1 4
1763 2 4.4 -9 0 0 0 0 1 4
1764 2 4.6 -9 0 0 0 0 1 4
1813 2 4.4 -8.8 0 0 0 0 1 4
1814 2 4.6 -8.8 0 0 0 0 1 4
1765 2 4.8 -9 0 0 0 0 1 4
1766 2 5 -9 0 0 0 0 1 4
1815 2 4.8 -8.8 0 0 0 0 1 4
1816 2 5 -8.8 0 0 0 0 1 4
1767 2 5.2 -9 0 0 0 0 1 4
1768 2 5.4 -9 0 0 0 0 1 4
1817 2 5.2 -8.8 0 0 0 0 1 4
1818 2 5.4 -8.8 0 0 0 0 1 4
1769 2 5.6 -9 0 0 0 0 1 4
1770 2 5.8 -9 0 0 0 0 1 4
1819 2 5.6 -8.8 0 0 0 0 1 4
1820 2 5.8 -8.8 0 0 0 0 1 4
1771 2 6 -9 0 0 0 0 1 4
1772 2 6.2 -9 0 0 0 0 1 4
1821 2 6 -8.8 0 0 0 0 1 4
1822 2 6.2 -8.8 0 0 0 0 1 4
1773 2 6.4 -9 0 0 0 0 1 4
1774 2 6.6 -9 0 0 0 0 1 4
1823 2 6.4 -8.8 0 0 0 0 1 4
1824 2 6.6 -8.8 0 0 0 0 1 4
1775 2 6.8 -9 0 0 0 0 1 4
1776 2 7 -9 0 0 0 0 1 4
1825 2 6.8 -8.8 0 0 0 0 1 4
1826 2 7 -8.8 0 0 0 0 1 4
1777 2 7.2 -9 0 0 0 0 1 4
1827 2 7.2 -8.8 0 0 0 0 1 4
1778 2 7.4 -9 0 0 0 0 1 4
1779 2 7.6 -9 0 0 0 0 1 4
1828 2 7.4 -8.8 0 0 0 0 1 4
1829 2 7.6 -8.8 0 0 0 0 1 4
1780 2 7.8 -9 0 0 0 0 1 4
1781 2 8 -9 0 0 0 0 1 4
1830 2 7.8 -8.8 0 0 0 0 1 4
1831 2 8 -8.8 0 0 0 0 1 4
1782 2 8.2 -9 0 0 0 0 1 4
1783 2 8.4 -9 0 0 0 0 1 4
1832 2 8.2 -8.8 0 0 0 0 1 4
1833 2 8.4 -8.8 0 0 0 0 1 4
1784 2 8.6 -9 0 0 0 0 1 4
1785 2 8.8 -9 0 0 0 0 1 4
1834 2 8.6 -8.8 0 0 0 0 1 4
1835 2 8.8 -8.8 0 0 0 0 1 4
1786 2 9 -9 0 0 0 0 1 4
1787 2 9.2 -9 0 0 0 0 1 4
1836 2 9 -8.8 0 0 0 0 1 4
1837 2 9.2 -8.8 0 0 0 0 1 4
1788 2 9.4 -9 0 0 0 0 1 4
1789 2 9.6 -9 0 0 0 0 1 4
1838 2 9.4 -8.8 0 0 0 0 1 4
1839 2 9.6 -8.8 0 0 0 0 1 4
1790 2 9.8 -9 0 0 0 0 1 4
1840 2 9.8 -8.8 0 0 0 0 1 4
1791 2 10 -9 0 0 0 0 1 4
1841 2 10 -8.8 0 0 0 0 1 4
1792 2 10.2 -9 0 0 0 0 1 4
1842 2 10.2 -8.8 0 0 0 0 1 4
1793 2 10.4 -9 0 0 0 0 1 4
1843 2 10.4 -8.8 0 0 0 0 1 4
1794 2 10.6 -9 0 0 0 0 1 4
1844 2 10.6 -8.8 0 0 0 0 1 4
1795 2 10.8 -9 0 0 0 0 1 4
1845 2 10.8 -8.8 0 0 0 0 1 4
1851 2 2 -8.6 0 0 0 0 1 4
1901 2 2 -8.4 0 0 0 0 1 4
1852 2 2.2 -8.6 0 0 0 0 1 4
1853 2 2.4 -8.6 0 0 0 0 1 4
1902 2 2.2 -8.4 0 0 0 0 1 4
1903 2 2.4 -8.4 0 0 0 0 1 4
1854 2 2.6 -8.6 0 0 0 0 1 4
1855 2 2.8 -8.6 0 0 0 0 1 4
1904 2 2.6 -8.4 0 0 0 0 1 4
1905 2 2.8 -8.4 0 0 0 0 1 4
1856 2 3 -8.6 0 0 0 0 1 4
1857 2 3.2 -8.6 0 0 0 0 1 4
1906 2 3 -8.4 0 0 0 0 1 4
1907 2 3.2 -8.4 0 0 0 0 1 4
1858 2 3.4 -8.6 0 0 0 0 1 4
1859 2 3.6 -8.6 0 0 0 0 1 4
1908 2 3.4 -8.4 0 0 0 0 1 4
1909 2 3.6 -8.4 0 0 0 0 1 4
1860 2 3.8 -8.6 0 0 0 0 1 4
1910 2 3.8 -8.4 0 0 0 0 1 4
1861 2 4 -8.6 0 0 0 0 1 4
1911 2 4 -8.4 0 0 0 0 1 4
1862 2 4.2 -8.6 0 0 0 0 1 4
1912 2 4.2 -8.4 0 0 0 0 1 4
1863 2 4.4 -8.6 0 0 0 0 1 4
1864 2 4.6 -8.6 0 0 0 0 1 4
1913 2 4.4 -8.4 0 0 0 0 1 4
1914 2 4.6 -8.4 0 0 0 0 1 4
1865 2 4.8 -8.6 0 0 0 0 1 4
1866 2 5 -8.6 0 0 0 0 1 4
1915 2 4.8 -8.4 0 0 0 0 1 4
1916 2 5 -8.4 0 0 0 0 1 4
1867 2 5.2 -8.6 0 0 0 0 1 4
1868 2 5.4 -8.6 0 0 0 0 1 4
1917 2 5.2 -8.4 0 0 0 0 1 4
1918 2 5.4 -8.4 0 0 0 0 1 4
1869 2 5.6 -8.6 0 0 0 0 1 4
1870 2 5.8 -8.6 0 0 0 0 1 4
1919 2 5.6 -8.4 0 0 0 0 1 4
1920 2 5.8 -8.4 0 0 0 0 1 4
1871 2 6 -8.6 0 0 0 0 1 4
1872 2 6.2 -8.6 0 0 0 0 1 4
1921 2 6 -8.4 0 0 0 0 1 4
1922 2 6.2 -8.4 0 0 0 0 1 4
1873 2 6.4 -8.6 0 0 0 0 1 4
1874 2 6.6 -8.6 0 0 0 0 1 4
1923 2 6.4 -8.4 0 0 0 0 1 4
1924 2 6.6 -8.4 0 0 0 0 1 4
1875 2 6.8 -8.6 0 0 0 0 1 4
1876 2 7 -8.6 0 0 0 0 1 4
1925 2 6.8 -8.4 0 0 0 0 1 4
1926 2 7 -8.4 0 0 0 0 1 4
1877 2 7.2 -8.6 0 0 0 0 1 4
1927 2 7.2 -8.4 0 0 0 0 1 4
1878 2 7.4 -8.6 0 0 0 0 1 4
1879 2 7.6 -8.6 0 0 0 0 1 4
1928 2 7.4 -8.4 0 0 0 0 1 4
1929 2 7.6 -8.4 0 0 0 0 1 4
1880 2 7.8 -8.6 0 0 0 0 1 4
1881 2 8 -8.6 0 0 0 0 1 4
1930 2 7.8 -8.4 0 0 0 0 1 4
1931 2 8 -8.4 0 0 0 0 1 4
1882 2 8.2 -8.6 0 0 0 0 1 4
1883 2 8.4 -8.6 0 0 0 0 1 4
1932 2 8.2 -8.4 0 0 0 0 1 4
1933 2 8.4 -8.4 0 0 0 0 1 4
1884 2 8.6 -8.6 0 0 0 0 1 4
1885 2 8.8 -8.6 0 0 0 0 1 4
1934 2 8.6 -8.4 0 0 0 0 1 4
1935 2 8.8 -8.4 0 0 0 0 1 4
1886 2 9 -8.6 0 0 0 0 1 4
1887 2 9.2 -8.6 0 0 0 0 1 4
1936 2 9 -8.4 0 0 0 0 1 4
1937 2 9.2 -8.4 0 0 0 0 1 4
1888 2 9.4 -8.6 0 0 0 0 1 4
1889 2 9.6 -8.6 0 0 0 0 1 4
1938 2 9.4 -8.4 0 0 0 0 1 4
1939 2 9.6 -8.4 0 0 0 0 1 4
1890 2 9.8 -8.6 0 0 0 0 1 4
1940 2 9.8 -8.4 0 0 0 0 1 4
1891 2 10 -8.6 0 0 0 0 1 4
1941 2 10 -8.4 0 0 0 0 1 4
1892 2 10.2 -8.6 0 0 0 0 1 4
1942 2 10.2 -8.4 0 0 0 0 1 4
1893 2 10.4 -8.6 0 0 0 0 1 4
1943 2 10.4 -8.4 0 0 0 0 1 4
1894 2 10.6 -8.6 0 0 0 0 1 4
1944 2 10.6 -8.4 0 0 0 0 1 4
1895 2 10.8 -8.6 0 0 0 0 1 4
1945 2 10.8 -8.4 0 0 0 0 1 4
1951 2 2 -8.2 0 0 0 0 1 4
2001 2 2 -8 0 0 0 0 1 4
1952 2 2.2 -8.2 0 0 0 0 1 4
1953 2 2.4 -8.2 0 0 0 0 1 4
2002 2 2.2 -8 0 0 0 0 1 4
2003 2 2.4 -8 0 0 0 0 1 4
1954 2 2.6 -8.2 0 0 0 0 1 4
1955 2 2.8 -8.2 0 0 0 0 1 4
2004 2 2.6 -8 0 0 0 0 1 4
2005 2 2.8 -8 0 0 0 0 1 4
1956 2 3 -8.2 0 0 0 0 1 4
1957 2 3.2 -8.2 0 0 0 0 1 4
2006 2 3 -8 0 0 0 0 1 4
2007 2 3.2 -8 0 0 0 0 1 4
1958 2 3.4 -8.2 0 0 0 0 1 4
1959 2 3.6 -8.2 0 0 0 0 1 4
2008 2 3.4 -8 0 0 0 0 1 4
2009 2 3.6 -8 0 0 0 0 1 4
1960 2 3.8 -8.2 0 0 0 0 1 4
2010 2 3.8 -8 0 0 0 0 1 4
1961 2 4 -8.2 0 0 0 0 1 4
2011 2 4 -8 0 0 0 0 1 4
1962 2 4.2 -8.2 0 0 0 0 1 4
2012 2 4.2 -8 0 0 0 0 1 4
1963 2 4.4 -8.2 0 0 0 0 1 4
1964 2 4.6 -8.2 0 0 0 0 1 4
2013 2 4.4 -8 0 0 0 0 1 4
2014 2 4.6 -8 0 0 0 0 1 4
1965 2 4.8 -8.2 0 0 0 0 1 4
1966 2 5 -8.2 0 0 0 0 1 4
2015 2 4.8 -8 0 0 0 0 1 4
2016 2 5 -8 0 0 0 0 1 4
1967 2 5.2 -8.2 0 0 0 0 1 4
1968 2 5.4 -8.2 0 0 0 0 1 4
2017 2 5.2 -8 0 0 0 0 1 4
2018 2 5.4 -8 0 0 0 0 1 4
1969 2 5.6 -8.2 0 0 0 0 1 4
1970 2 5.8 -8.2 0 0 0 0 1 4
2019 2 5.6 -8 0 0 0 0 1 4
2020 2 5.8 -8 0 0 0 0 1 4
1971 2 6 -8.2 0 0 0 0 1 4
1972 2 6.2 -8.2 0 0 0 0 1 4
2021 2 6 -8 0 0 0 0 1 4
2022 2 6.2 -8 0 0 0 0 1 4
1973 2 6.4 -8.2 0 0 0 0 1 4
1974 2 6.6 -8.2 0 0 0 0 1 4
2023 2 6.4 -8 0 0 0 0 1 4
2024 2 6.6 -8 0 0 0 0 1 4
1975 2 6.8 -8.2 0 0 0 0 1 4
1976 2 7 -8.2 0 0 0 0 1 4
2025 2 6.8 -8 0 0 0 0 1 4
2026 2 7 -8 0 0 0 0 1 4
1977 2 7.2 -8.2 0 0 0 0 1 4
2027 2 7.2 -8 0 0 0 0 1 4
1978 2 7.4 -8.2 0 0 0 0 1 4
1979 2 7.6 -8.2 0 0 0 0 1 4
2028 2 7.4 -8 0 0 0 0 1 4
2029 2 7.6 -8 0 0 0 0 1 4
1980 2 7.8 -8.2 0 0 0 0 1 4
1981 2 8 -8.2 0 0 0 0 1 4
2030 2 7.8 -8 0 0 0 0 1 4
2031 2 8 -8 0 0 0 0 1 4
1982 2 8.2 -8.2 0 0 0 0 1 4
1983 2 8.4 -8.2 0 0 0 0 1 4
2032 2 8.2 -8 0 0 0 0 1 4
2033 2 8.4 -8 0 0 0 0 1 4
1984 2 8.6 -8.2 0 0 0 0 1 4
1985 2 8.8 -8.2 0 0 0 0 1 4
2034 2 8.6 -8 0 0 0 0 1 4
2035 2 8.8 -8 0 0 0 0 1 4
1986 2 9 -8.2 0 0 0 0 1 4
1987 2 9.2 -8.2 0 0 0 0 1 4
2036 2 9 -8 0 0 0 0 1 4
2037 2 9.2 -8 0 0 0 0 1 4
1988 2 9.4 -8.2 0 0 0 0 1 4
1989 2 9.6 -8.2 0 0 0 0 1 4
2038 2 9.4 -8 0 0 0 0 1 4
2039 2 9.6 -8 0 0 0 0 1 4
1990 2 9.8 -8.2 0 0 0 0 1 4
2040 2 9.8 -8 0 0 0 0 1 4
1991 2 10 -8.2 0 0 0 0 1 4
2041 2 10 -8 0 0 0 0 1 4
1992 2 10.2 -8.2 0 0 0 0 1 4
2042 2 10.2 -8 0 0 0 0 1 4
1993 2 10.4 -8.2 0 0 0 0 1 4
2043 2 10.4 -8 0 0 0 0 1 4
1994 2 10.6 -8.2 0 0 0 0 1 4
2044 2 10.6 -8 0 0 0 0 1 4
1995 2 10.8 -8.2 0 0 0 0 1 4
2045 2 10.8 -8 0 0 0 0 1 4
2051 2 2 -7.8 0 0 0 0 1 4
2101 2 2 -7.6 0 0 0 0 1 4
2151 2 2 -7.4 0 0 0 0 1.00004 4
2052 2 2.2 -7.8 0 0 0 0 1 4
2053 2 2.4 -7.8 0 0 0 0 1 4
2102 2 2.2 -7.6 0 0 0 0 1 4
2103 2 2.4 -7.6 0 0 0 0 1 4
2152 2 2.2 -7.4 0 0 0 0 0.999931 4
2153 2 2.4 -7.4 0 0 0 0 0.99998 4
2054 2 2.6 -7.8 0 0 0 0 1 4
2055 2 2.8 -7.8 0 0 0 0 1 4
2104 2 2.6 -7.6 0 0 0 0 1 4
2105 2 2.8 -7.6 0 0 0 0 1 4
2154 2 2.6 -7.4 0 0 0 0 1.00002 4
2155 2 2.8 -7.4 0 0 0 0 0.999993 4
2056 2 3 -7.8 0 0 0 0 1 4
2057 2 3.2 -7.8 0 0 0 0 1 4
2106 2 3 -7.6 0 0 0 0 1 4
2107 2 3.2 -7.6 0 0 0 0 1 4
2156 2 3 -7.4 0 0 0 0 0.999985 4
2157 2 3.2 -7.4 0 0 0 0 1 4
2058 2 3.4 -7.8 0 0 0 0 1 4
2059 2 3.6 -7.8 0 0 0 0 1 4
2108 2 3.4 -7.6 0 0 0 0 1 4
2109 2 3.6 -7.6 0 0 0 0 1 4
2158 2 3.4 -7.4 0 0 0 0 1.00002 4
2159 2 3.6 -7.4 0 0 0 0 1.00003 4
2060 2 3.8 -7.8 0 0 0 0 1 4
2110 2 3.8 -7.6 0 0 0 0 1 4
2160 2 3.8 -7.4 0 0 0 0 1.00004 4
2061 2 4 -7.8 0 0 0 0 1 4
2111 2 4 -7.6 0 0 0 0 1 4
2161 2 4 -7.4 0 0 0 0 1.0137 4
2062 2 4.2 -7.8 0 0 0 0 1 4
2112 2 4.2 -7.6 0 0 0 0 1 4
2162 2 4.2 -7.4 0 0 0 0 1.01369 4
2063 2 4.4 -7.8 0 0 0 0 1 4
2064 2 4.6 -7.8 0 0 0 0 1 4
2113 2 4.4 -7.6 0 0 0 0 1 4
2114 2 4.6 -7.6 0 0 0 0 1 4
2163 2 4.4 -7.4 0 0 0 0 1.00681 4
2164 2 4.6 -7.4 0 0 0 0 1.00332 4
2065 2 4.8 -7.8 0 0 0 0 1 4
2066 2 5 -7.8 0 0 0 0 1 4
2115 2 4.8 -7.6 0 0 0 0 1 4
2116 2 5 -7.6 0 0 0 0 1 4
2165 2 4.8 -7.4 0 0 0 0 1.00265 4
2166 2 5 -7.4 0 0 0 0 1.00204 4
2067 2 5.2 -7.8 0 0 0 0 1 4
2068 2 5.4 -7.8 0 0 0 0 1 4
2117 2 5.2 -7.6 0 0 0 0 1 4
2118 2 5.4 -7.6 0 0 0 0 1 4
2167 2 5.2 -7.4 0 0 0 0 1.00192 4
2168 2 5.4 -7.4 0 0 0 0 1.00202 4
2069 2 5.6 -7.8 0 0 0 0 1 4
2070 2 5.8 -7.8 0 0 0 0 1 4
2119 2 5.6 -7.6 0 0 0 0 1 4
2120 2 5.8 -7.6 0 0 0 0 1 4
2169 2 5.6 -7.4 0 0 0 0 1.00212 4
2170 2 5.8 -7.4 0 0 0 0 1.00183 4
2071 2 6 -7.8 0 0 0 0 1 4
2072 2 6.2 -7.8 0 0 0 0 1 4
2121 2 6 -7.6 0 0 0 0 1 4
2122 2 6.2 -7.6 0 0 0 0 1 4
2171 2 6 -7.4 0 0 0 0 1.00183 4
2172 2 6.2 -7.4 0 0 0 0 1.00182 4
2073 2 6.4 -7.8 0 0 0 0 1 4
2074 2 6.6 -7.8 0 0 0 0 1 4
2123 2 6.4 -7.6 0 0 0 0 1 4
2124 2 6.6 -7.6 0 0 0 0 1 4
2173 2 6.4 -7.4 0 0 0 0 1.00174 4
2174 2 6.6 -7.4 0 0 0 0 1.00169 4
2075 2 6.8 -7.8 0 0 0 0 1 4
2076 2 7 -7.8 0 0 0 0 1 4
2125 2 6.8 -7.6 0 0 0 0 1 4
2126 2 7 -7.6 0 0 0 0 1 4
2175 2 6.8 -7.4 0 0 0 0 1.0017 4
2176 2 7 -7.4 0 0 0 0 1.00167 4
2077 2 7.2 -7.8 0 0 0 0 1 4
2127 2 7.2 -7.6 0 0 0 0 1 4
2177 2 7.2 -7.4 0 0 0 0 1.00159 4
2078 2 7.4 -7.8 0 0 0 0 1 4
2079 2 7.6 -7.8 0 0 0 0 1 4
2128 2 7.4 -7.6 0 0 0 0 1 4
2129 2 7.6 -7.6 0 0 0 0 1 4
2178 2 7.4 -7.4 0 0 0 0 1.0016 4
2179 2 7.6 -7.4 0 0 0 0 1.00164 4
2080 2 7.8 -7.8 0 0 0 0 1 4
2081 2 8 -7.8 0 0 0 0 1 4
2130 2 7.8 -7.6 0 0 0 0 1 4
2131 2 8 -7.6 0 0 0 0 1 4
2180 2 7.8 -7.4 0 0 0 0 1.00153 4
2181 2 8 -7.4 0 0 0 0 1.00155 4
2082 2 8.2 -7.8 0 0 0 0 1 4
2083 2 8.4 -7.8 0 0 0 0 1 4
2132 2 8.2 -7.6 0 0 0 0 1 4
2133 2 8.4 -7.6 0 0 0 0 1 4
2182 2 8.2 -7.4 0 0 0 0 1.00151 4
2183 2 8.4 -7.4 0 0 0 0 1.00152 4
2084 2 8.6 -7.8 0 0 0 0 1 4
2085 2 8.8 -7.8 0 0 0 0 1 4
2134 2 8.6 -7.6 0 0 0 0 1 4
2135 2 8.8 -7.6 0 0 0 0 1 4
2184 2 8.6 -7.4 0 0 0 0 1.00145 4
2185 2 8.8 -7.4 0 0 0 0 1.00152 4
2086 2 9 -7.8 0 0 0 0 1 4
2087 2 9.2 -7.8 0 0 0 0 1 4
2136 2 9 -7.6 0 0 0 0 1 4
2137 2 9.2 -7.6 0 0 0 0 1 4
2186 2 9 -7.4 0 0 0 0 1.00152 4
2187 2 9.2 -7.4 0 0 0 0 1.00134 4
2088 2 9.4 -7.8 0 0 0 0 1 4
2089 2 9.6 -7.8 0 0 0 0 1 4
2138 2 9.4 -7.6 0 0 0 0 1 4
2139 2 9.6 -7.6 0 0 0 0 1 4
2188 2 9.4 -7.4 0 0 0 0 1.0014 4
2189 2 9.6 -7.4 0 0 0 0 1.00142 4
2090 2 9.8 -7.8 0 0 0 0 1 4
2140 2 9.8 -7.6 0 0 0 0 1 4
2190 2 9.8 -7.4 0 0 0 0 1.0013 4
2091 2 10 -7.8 0 0 0 0 1 4
2141 2 10 -7.6 0 0 0 0 1 4
2191 2 10 -7.4 0 0 0 0 1.0013 4
2092 2 10.2 -7.8 0 0 0 0 1 4
2142 2 10.2 -7.6 0 0 0 0 1 4
2192 2 10.2 -7.4 0 0 0 0 1.00124 4
2093 2 10.4 -7.8 0 0 0 0 1 4
2143 2 10.4 -7.6 0 0 0 0 1 4
2193 2 10.4 -7.4 0 0 0 0 1.00122 4
2094 2 10.6 -7.8 0 0 0 0 1 4
2144 2 10.6 -7.6 0 0 0 0 1 4
2194 2 10.6 -7.4 0 0 0 0 1.0012 4
2095 2 10.8 -7.8 0 0 0 0 1 4
2145 2 10.8 -7.6 0 0 0 0 1 4
2195 2 10.8 -7.4 0 0 0 0 1.00126 4
2201 2 2 -7.2 0 0 0 0 1.00004 4
2251 2 2 -7 0 0 0 0 1.00005 4
2202 2 2.2 -7.2 0 0 0 0 0.999963 4
2203 2 2.4 -7.2 0 0 0 0 0.999981 4
2252 2 2.2 -7 0 0 0 0 0.999974 4
2253 2 2.4 -7 0 0 0 0 0.999982 4
2204 2 2.6 -7.2 0 0 0 0 1.00001 4
2205 2 2.8 -7.2 0 0 0 0 0.999998 4
2254 2 2.6 -7 0 0 0 0 1 4
2255 2 2.8 -7 0 0 0 0 0.999999 4
2206 2 3 -7.2 0 0 0 0 0.999988 4
2207 2 3.2 -7.2 0 0 0 0 0.999997 4
2256 2 3 -7 0 0 0 0 0.99999 4
2257 2 3.2 -7 0 0 0 0 0.999996 4
2208 2 3.4 -7.2 0 0 0 0 1.00001 4
2209 2 3.6 -7.2 0 0 0 0 1.00002 4
2258 2 3.4 -7 0 0 0 0 1.00001 4
2259 2 3.6 -7 0 0 0 0 1.00006 4
2210 2 3.8 -7.2 0 0 0 0 1.00122 4
2260 2 3.8 -7 0 0 0 0 1.00159 4
2211 2 4 -7.2 0 0 0 0 1.00733 4
2261 2 4 -7 0 0 0 0 1.00671 4
2212 2 4.2 -7.2 0 0 0 0 1.0108 4
2262 2 4.2 -7 0 0 0 0 1.00994 4
2213 2 4.4 -7.2 0 0 0 0 1.00707 4
2214 2 4.6 -7.2 0 0 0 0 1.0038 4
2263 2 4.4 -7 0 0 0 0 1.00743 4
2264 2 4.6 -7 0 0 0 0 1.00427 4
2215 2 4.8 -7.2 0 0 0 0 1.00283 4
2216 2 5 -7.2 0 0 0 0 1.00244 4
2265 2 4.8 -7 0 0 0 0 1.00315 4
2266 2 5 -7 0 0 0 0 1.00279 4
2217 2 5.2 -7.2 0 0 0 0 1.00225 4
2218 2 5.4 -7.2 0 0 0 0 1.00228 4
2267 2 5.2 -7 0 0 0 0 1.00255 4
2268 2 5.4 -7 0 0 0 0 1.0025 4
2219 2 5.6 -7.2 0 0 0 0 1.00234 4
2220 2 5.8 -7.2 0 0 0 0 1.00204 4
2269 2 5.6 -7 0 0 0 0 1.00247 4
2270 2 5.8 -7 0 0 0 0 1.00222 4
2221 2 6 -7.2 0 0 0 0 1.002 4
2222 2 6.2 -7.2 0 0 0 0 1.00197 4
2271 2 6 -7 0 0 0 0 1.00216 4
2272 2 6.2 -7 0 0 0 0 1.00211 4
2223 2 6.4 -7.2 0 0 0 0 1.00187 4
2224 2 6.6 -7.2 0 0 0 0 1.00181 4
2273 2 6.4 -7 0 0 0 0 1.002 4
2274 2 6.6 -7 0 0 0 0 1.00193 4
2225 2 6.8 -7.2 0 0 0 0 1.00178 4
2226 2 7 -7.2 0 0 0 0 1.00176 4
2275 2 6.8 -7 0 0 0 0 1.00188 4
2276 2 7 -7 0 0 0 0 1.00184 4
2227 2 7.2 -7.2 0 0 0 0 1.00167 4
2277 2 7.2 -7 0 0 0 0 1.00176 4
2228 2 7.4 -7.2 0 0 0 0 1.00166 4
2229 2 7.6 -7.2 0 0 0 0 1.00168 4
2278 2 7.4 -7 0 0 0 0 1.00174 4
2279 2 7.6 -7 0 0 0 0 1.00174 4
2230 2 7.8 -7.2 0 0 0 0 1.00161 4
2231 2 8 -7.2 0 0 0 0 1.00159 4
2280 2 7.8 -7 0 0 0 0 1.00168 4
2281 2 8 -7 0 0 0 0 1.00165 4
2232 2 8.2 -7.2 0 0 0 0 1.00157 4
2233 2 8.4 -7.2 0 0 0 0 1.00155 4
2282 2 8.2 -7 0 0 0 0 1.00162 4
2283 2 8.4 -7 0 0 0 0 1.0016 4
2234 2 8.6 -7.2 0 0 0 0 1.00152 4
2235 2 8.8 -7.2 0 0 0 0 1.00154 4
2284 2 8.6 -7 0 0 0 0 1.00156 4
2285 2 8.8 -7 0 0 0 0 1.00156 4
2236 2 9 -7.2 0 0 0 0 1.00149 4
2237 2 9.2 -7.2 0 0 0 0 1.00141 4
2286 2 9 -7 0 0 0 0 1.00152 4
2287 2 9.2 -7 0 0 0 0 1.00147 4
2238 2 9.4 -7.2 0 0 0 0 1.00145 4
2239 2 9.6 -7.2 0 0 0 0 1.00142 4
2288 2 9.4 -7 0 0 0 0 1.00148 4
2289 2 9.6 -7 0 0 0 0 1.00145 4
2240 2 9.8 -7.2 0 0 0 0 1.00135 4
2290 2 9.8 -7 0 0 0 0 1.00139 4
2241 2 10 -7.2 0 0 0 0 1.00132 4
2291 2 10 -7 0 0 0 0 1.00136 4
2242 2 10.2 -7.2 0 0 0 0 1.00129 4
2292 2 10.2 -7 0 0 0 0 1.00133 4
2243 2 10.4 -7.2 0 0 0 0 1.00124 4
2293 2 10.4 -7 0 0 0 0 1.00127 4
2244 2 10.6 -7.2 0 0 0 0 1.00122 4
2294 2 10.6 -7 0 0 0 0 1.00124 4
2245 2 10.8 -7.2 0 0 0 0 1.00125 4
2295 2 10.8 -7 0 0 0 0 1.00125 4
15376 1 0.80013 -6.75913 0.02 0 0 0 1 1
15377 1 1.01081 -6.77156 0.02 0 0 0 1 1
15378 1 1.01604 -6.58618 0.02 0 0 0 1 1
15379 1 1.21486 -6.73708 0.02 0 0 0 1 1
15381 1 1.21631 -6.55603 0.02 0 0 0 1 1
15380 1 1.40844 -6.73668 0.02 0 0 0 1 1
15382 1 1.41381 -6.55449 0.02 0 0 0 1 1
15383 1 1.60058 -6.76418 0.02 0 0 0 1.00006 1
15385 1 1.61057 -6.56259 0.02 0 0 0 1 1
15384 1 1.78786 -6.72592 0.02 0 0 0 1.00015 1
15386 1 1.80917 -6.54316 0.02 0 0 0 1.00001 1
15387 1 1.98073 -6.74511 0.02 0 0 0 1.00003 1
15389 1 2.00232 -6.5541 0.02 0 0 0 1.00001 1
15388 1 2.17612 -6.75213 0.02 0 0 0 0.999965 1
15390 1 2.19325 -6.56552 0.02 0 0 0 0.999997 1
15391 1 2.37823 -6.74839 0.02 0 0 0 0.999988 1
15393 1 2.38242 -6.55383 0.02 0 0 0 0.999999 1
15392 1 2.57655 -6.75526 0.02 0 0 0 1.00001 1
15394 1 2.57546 -6.57356 0.02 0 0 0 1 1
15395 1 2.77137 -6.55521 0.02 0 0 0 1 1
15396 1 2.78072 -6.7397 0.02 0 0 0 1 1
14998 1 2.9912 -6.76647 0.02 0 0 0 0.999993 1
14999 1 3.19351 -6.74125 0.02 0 0 0 0.999993 1
15000 1 2.95874 -6.5656 0.02 0 0 0 1 1
15001 1 3.14574 -6.56063 0.02 0 0 0 0.999999 1
15002 1 3.39159 -6.77108 0.02 0 0 0 1.00001 1
15003 1 3.58218 -6.71828 0.02 0 0 0 1 1
15004 1 3.348 -6.57714 0.02 0 0 0 1 1
15005 1 3.55065 -6.55056 0.02 0 0 0 1 1
15006 1 3.77025 -6.75881 0.02 0 0 0 1.00002 1
15007 1 3.9677 -6.73357 0.02 0 0 0 1.00011 1
15008 1 3.76895 -6.56643 0.02 0 0 0 1.00002 1
15009 1 3.97456 -6.55489 0.02 0 0 0 1.00009 1
15010 1 4.10113 -6.75431 0.0115666 0.00113123 1.14708e-05 -1.66678e-06 1.01318 0
15012 1 4.13177 -6.53145 0.0168419 0.0032297 5.11701e-06 -5.48376e-06 1.01002 0
15011 1 4.24384 -6.67235 0.0127842 0.00250025 7.99229e-06 -4.11993e-07 1.01044 0
15013 1 4.31284 -6.49718 0.0161491 0.00417838 4.85358e-06 -4.72402e-06 1.00862 0
15014 1 4.38349 -6.73524 0.00922675 0.00125821 5.23688e-06 -1.51597e-06 1.00778 0
14651 1 4.52069 -6.58062 0.0131446 0.00265273 1.86978e-06 -2.58602e-06 1.00531 0
14653 1 4.57223 -6.73292 0.00783118 0.000983187 2.17529e-06 -9.34743e-07 1.00459 0
14654 1 4.75253 -6.57088 0.0113495 0.00197367 -2.74576e-06 -1.38249e-06 1.00385 0
14659 1 4.7418 -6.75528 0.00592693 0.000633125 -1.14524e-06 6.48475e-08 1.00391 0
14655 1 4.91559 -6.49014 0.0119786 0.00205771 -7.03026e-06 -4.76282e-07 1.0038 0
14660 1 5.0474 -6.57009 0.00930568 0.00124315 -8.15088e-06 7.50287e-07 1.00327 0
14663 1 5.18622 -6.48329 0.0104377 0.00143893 -1.07026e-05 1.26155e-06 1.00324 0
14664 1 4.92645 -6.73513 0.00553803 0.000455823 -4.38365e-06 6.40558e-07 1.00356 0
14671 1 5.12242 -6.72941 0.00487405 0.000353738 -6.15669e-06 1.39406e-06 1.00314 0
14667 1 5.35205 -6.50701 0.00918808 0.00109152 -1.09545e-05 2.03972e-06 1.00294 0
14315 1 5.30201 -6.68649 0.0053594 0.000393312 -8.00028e-06 1.8351e-06 1.00271 0
14318 1 5.55701 -6.60942 0.00638105 0.000556816 -8.33369e-06 2.00266e-06 1.00259 0
14328 1 5.44799 -6.78684 0.00313694 7.15636e-05 -5.54105e-06 1.77375e-06 1.00292 0
14322 1 5.83419 -6.5486 0.00679464 0.000589813 -7.21314e-06 1.82025e-06 1.00246 0
13991 1 5.67839 -6.70153 0.00421336 0.000234811 -5.82577e-06 1.58916e-06 1.00252 0
13996 1 5.84333 -6.7261 0.00341829 0.000137423 -4.56096e-06 1.39899e-06 1.00238 0
14002 1 6.12948 -6.59655 0.00526191 0.000356482 -4.23855e-06 1.44728e-06 1.00221 0
13638 1 6.01771 -6.76346 0.00266405 4.05097e-05 -3.38724e-06 1.07238e-06 1.00242 0
13631 1 6.36258 -6.57488 0.00522111 0.000318794 -3.05226e-06 1.26508e-06 1.00212 0
13276 1 6.23238 -6.74082 0.00276965 5.36473e-05 -2.54906e-06 9.36748e-07 1.00228 0
12923 1 6.43552 -6.73995 0.00260412 4.04291e-05 -1.81464e-06 7.74709e-07 1.00216 0
13634 1 6.56975 -6.55595 0.00519171 0.000285132 -2.21689e-06 1.12527e-06 1.00205 0
13642 1 6.77749 -6.53969 0.00513644 0.000264812 -1.54473e-06 1.00744e-06 1.00198 0
12927 1 6.63082 -6.7249 0.00265736 3.80726e-05 -1.35633e-06 6.70961e-07 1.00206 0
12585 1 6.81137 -6.73004 0.00247497 3.08054e-05 -9.60738e-07 5.35211e-07 1.00202 0
13649 1 6.96677 -6.52186 0.0051375 0.000249123 -1.11861e-06 9.01248e-07 1.00194 0
12592 1 6.98948 -6.71118 0.00261927 2.95602e-05 -7.22515e-07 4.9379e-07 1.00199 0
12248 1 7.15803 -6.70209 0.00263099 1.97651e-05 -5.53106e-07 4.55407e-07 1.00193 0
12934 1 7.46937 -6.53775 0.00444544 0.000165735 -4.07378e-07 6.05492e-07 1.00179 0
11919 1 7.32283 -6.7078 0.00244054 6.83804e-06 -4.22401e-07 3.76382e-07 1.00185 0
12943 1 7.63385 -6.56795 0.00395672 0.000132722 -3.04832e-07 4.84914e-07 1.00174 0
11538 1 7.49474 -6.75301 0.00189958 -3.64347e-06 -2.42288e-07 2.59397e-07 1.00186 0
12936 1 7.81358 -6.53216 0.00424414 0.000138516 -2.63412e-07 4.90692e-07 1.00172 0
11195 1 7.70736 -6.73187 0.00203037 6.06055e-06 -1.58818e-07 2.21908e-07 1.00178 0
12254 1 7.98361 -6.56988 0.00372313 0.000112239 -2.05982e-07 3.96802e-07 1.00167 0
10864 1 7.90313 -6.7466 0.0018293 -1.09171e-06 -1.33037e-07 1.5844e-07 1.00174 0
10527 1 8.1113 -6.73096 0.00191868 3.13722e-06 -1.49715e-07 1.62251e-07 1.0017 0
12589 1 8.30417 -6.55336 0.00374081 9.39926e-05 -2.73416e-07 3.73662e-07 1.00163 0
11207 1 8.47353 -6.56305 0.00356784 8.09297e-05 -3.18865e-07 3.8363e-07 1.00161 0
10538 1 8.31626 -6.74194 0.0017624 -4.11245e-06 -1.74273e-07 1.66983e-07 1.0017 0
10178 1 8.52851 -6.73955 0.00172319 -5.27516e-06 -2.33353e-07 2.07954e-07 1.00165 0
12240 1 8.64778 -6.51553 0.00398114 8.11233e-05 -3.77669e-07 4.963e-07 1.00157 0
10185 1 8.75469 -6.63278 0.00273048 3.96535e-05 -3.7394e-07 3.83768e-07 1.00153 0
3116 1 8.80063 -6.7793 0.00138289 2.21437e-06 -2.41867e-07 2.23261e-07 1.00159 0
3119 1 9.01358 -6.71912 0.00183043 1.1549e-05 -3.40737e-07 3.26729e-07 1.00153 0
11546 1 9.19414 -6.51765 0.00376121 6.61569e-05 -2.83768e-07 6.09965e-07 1.0015 0
3109 1 9.32332 -6.61637 0.00274876 5.14769e-05 -2.11914e-07 5.4316e-07 1.00147 0
3123 1 9.23063 -6.77886 0.00134622 -2.77205e-05 -3.43648e-07 3.1788e-07 1.00154 0
11916 1 9.0287 -6.53658 0.00363215 6.20609e-05 -3.65919e-07 5.89264e-07 1.00151 0
3113 1 9.53977 -6.58262 0.00302132 5.09182e-05 -2.62963e-08 5.77763e-07 1.00144 0
3124 1 9.49417 -6.75134 0.00149344 -2.18053e-06 -1.80753e-07 3.32885e-07 1.0015 0
3125 1 9.69515 -6.72374 0.00168641 -1.28174e-05 -6.90668e-08 3.6468e-07 1.00146 0
3117 1 9.83629 -6.57383 0.0030472 4.62999e-05 3.43288e-07 4.58121e-07 1.00139 0
3121 1 10.0829 -6.55952 0.0031204 3.05206e-05 7.34879e-07 3.44769e-07 1.00136 0
3126 1 9.89852 -6.7337 0.00156271 -1.7962e-05 1.34017e-07 3.01354e-07 1.00144 0
3127 1 10.0935 -6.72872 0.00157649 -2.09569e-05 3.44752e-07 2.43093e-07 1.00141 0
10521 1 10.2896 -6.55002 0.00316458 1.52508e-05 1.0577e-06 2.296e-07 1.00132 0
3128 1 10.2827 -6.74028 0.00146436 -2.12444e-05 5.14944e-07 1.49832e-07 1.00136 0
3129 1 10.4735 -6.67844 0.00198089 -1.25011e-05 8.89883e-07 7.36553e-08 1.00125 0
3131 1 10.618 -6.76439 0.00128564 -1.93534e-05 7.32305e-07 -1.2521e-08 1.00128 0
3105 1 10.6966 -6.55308 0.00308156 1.1887e-05 1.48871e-06 -1.03341e-08 1.00125 0
3103 1 10.8964 -6.52965 0.0032545 1.02613e-05 1.62015e-06 -1.21916e-07 1.00121 0
3130 1 10.8192 -6.72635 0.00154546 -1.67407e-05 9.51817e-07 -8.95424e-08 1.00129 0
14188 1 8.22875 -0.356716 0.0249748 0.000404601 2.50557e-06 8.38283e-07 1.00163 0
15397 1 0.975576 -6.41015 0.02 0 0 0 1 1
15398 1 1.00604 -6.22782 0.02 0 0 0 1 1
15399 1 1.19562 -6.38041 0.02 0 0 0 1 1
15401 1 1.21537 -6.20093 0.02 0 0 0 1 1
15400 1 1.42724 -6.37493 0.02 0 0 0 1 1
15402 1 1.4207 -6.19124 0.02 0 0 0 1 1
15403 1 1.6366 -6.37295 0.02 0 0 0 1 1
15405 1 1.63218 -6.18503 0.02 0 0 0 1 1
15404 1 1.83582 -6.35256 0.02 0 0 0 1 1
15406 1 1.83515 -6.15959 0.02 0 0 0 1 1
15407 1 2.02902 -6.35927 0.02 0 0 0 1 1
15409 1 2.03289 -6.16214 0.02 0 0 0 1 1
15408 1 2.2186 -6.37098 0.02 0 0 0 1 1
15410 1 2.22421 -6.16723 0.02 0 0 0 1 1
15411 1 2.40986 -6.35953 0.02 0 0 0 1 1
15413 1 2.41662 -6.16965 0.02 0 0 0 1 1
15020 1 2.80372 -6.16523 0.02 0 0 0 1 1
15412 1 2.59963 -6.38627 0.02 0 0 0 1 1
15414 1 2.61093 -6.1843 0.02 0 0 0 1 1
15415 1 2.7916 -6.36285 0.02 0 0 0 1 1
15016 1 2.98197 -6.35968 0.02 0 0 0 1 1
15017 1 3.17259 -6.37026 0.02 0 0 0 1 1
15018 1 2.99863 -6.15822 0.02 0 0 0 1 1
15019 1 3.19447 -6.17271 0.02 0 0 0 1 1
15021 1 3.36697 -6.38957 0.02 0 0 0 1 1
15022 1 3.5778 -6.37948 0.02 0 0 0 1 1
15023 1 3.39404 -6.20206 0.02 0 0 0 1 1
15024 1 3.60687 -6.20282 0.02 0 0 0 1 1
15025 1 3.7876 -6.38226 0.02 0 0 0 1.00002 1
15026 1 3.99904 -6.37525 0.02 0 0 0 1.00006 1
15027 1 3.82398 -6.20099 0.02 0 0 0 1.00003 1
15028 1 4.02188 -6.18896 0.0177863 0.00174556 6.80103e-06 -1.11671e-05 1.00516 0
15015 1 4.46979 -6.41607 0.016512 0.00420525 1.13968e-06 -4.50385e-06 1.00595 0
15029 1 4.17004 -6.3389 0.0173226 0.0038283 6.15785e-06 -9.89541e-06 1.00769 0
15030 1 4.34524 -6.28131 0.0176693 0.00496805 5.28055e-06 -9.20047e-06 1.00637 0
15031 1 4.20433 -6.13891 0.0177643 0.00407467 1.30595e-05 -1.19826e-05 1.00596 0
15032 1 4.39264 -6.09628 0.0184247 0.0051861 9.79328e-06 -1.03966e-05 1.005 0
15033 1 4.54216 -6.2341 0.017661 0.00493581 1.45655e-06 -6.4488e-06 1.00489 0
14652 1 4.64902 -6.41465 0.0153251 0.00354741 -2.07931e-06 -3.35364e-06 1.00467 0
14656 1 4.80612 -6.33851 0.0152689 0.0034607 -5.01122e-06 -2.75803e-06 1.00427 0
14673 1 4.71126 -6.17303 0.0174064 0.00469944 -7.35975e-07 -5.5357e-06 1.00432 0
15034 1 4.57012 -6.02867 0.0185419 0.00535412 6.77169e-06 -7.75537e-06 1.00433 0
14675 1 4.88149 -6.11627 0.0170697 0.00441497 -3.42728e-06 -4.58704e-06 1.00399 0