ITEM: TIMESTEP
47000
ITEM: NUMBER OF ATOMS
11956
ITEM: BOX BOUNDS ff ff pp
0.0000000000000000e+00 2.2000000000000000e+01
-1.0000000000000000e+01 1.0000000000000000e+01
-2.0000000000000000e-02 2.0000000000000000e-02
ITEM: ATOMS id type x y vx vy fx fy c_den c_phase
1501 2 2 -10 0 0 0 0 1 5
1551 2 2 -9.8 0 0 0 0 1 5
1601 2 2 -9.6 0 0 0 0 1 5
1502 2 2.2 -10 0 0 0 0 1 5
1503 2 2.4 -10 0 0 0 0 1 5
1552 2 2.2 -9.8 0 0 0 0 1 5
1553 2 2.4 -9.8 0 0 0 0 1 5
1602 2 2.2 -9.6 0 0 0 0 1 5
1603 2 2.4 -9.6 0 0 0 0 1 5
1504 2 2.6 -10 0 0 0 0 1 5
1505 2 2.8 -10 0 0 0 0 1 5
1554 2 2.6 -9.8 0 0 0 0 1 5
1555 2 2.8 -9.8 0 0 0 0 1 5
1604 2 2.6 -9.6 0 0 0 0 1 5
1605 2 2.8 -9.6 0 0 0 0 1 5
1506 2 3 -10 0 0 0 0 1 5
1507 2 3.2 -10 0 0 0 0 1 5
1556 2 3 -9.8 0 0 0 0 1 5
1557 2 3.2 -9.8 0 0 0 0 1 5
1606 2 3 -9.6 0 0 0 0 1 5
1607 2 3.2 -9.6 0 0 0 0 1 5
1508 2 3.4 -10 0 0 0 0 1 5
1509 2 3.6 -10 0 0 0 0 1 5
1558 2 3.4 -9.8 0 0 0 0 1 5
1559 2 3.6 -9.8 0 0 0 0 1 5
1608 2 3.4 -9.6 0 0 0 0 1 5
1609 2 3.6 -9.6 0 0 0 0 1 5
1510 2 3.8 -10 0 0 0 0 1 5
1560 2 3.8 -9.8 0 0 0 0 1 5
1610 2 3.8 -9.6 0 0 0 0 1 5
1511 2 4 -10 0 0 0 0 1 5
1561 2 4 -9.8 0 0 0 0 1 5
1611 2 4 -9.6 0 0 0 0 1 5
1512 2 4.2 -10 0 0 0 0 1 5
1562 2 4.2 -9.8 0 0 0 0 1 5
1612 2 4.2 -9.6 0 0 0 0 1 5
1513 2 4.4 -10 0 0 0 0 1 5
1514 2 4.6 -10 0 0 0 0 1 5
1563 2 4.4 -9.8 0 0 0 0 1 5
1564 2 4.6 -9.8 0 0 0 0 1 5
1613 2 4.4 -9.6 0 0 0 0 1 5
1614 2 4.6 -9.6 0 0 0 0 1 5
1515 2 4.8 -10 0 0 0 0 1 5
1516 2 5 -10 0 0 0 0 1 5
1565 2 4.8 -9.8 0 0 0 0 1 5
1566 2 5 -9.8 0 0 0 0 1 5
1615 2 4.8 -9.6 0 0 0 0 1 5
1616 2 5 -9.6 0 0 0 0 1 5
1517 2 5.2 -10 0 0 0 0 1 5
1518 2 5.4 -10 0 0 0 0 1 5
1567 2 5.2 -9.8 0 0 0 0 1 5
1568 2 5.4 -9.8 0 0 0 0 1 5
1617 2 5.2 -9.6 0 0 0 0 1 5
1618 2 5.4 -9.6 0 0 0 0 1 5
1519 2 5.6 -10 0 0 0 0 1 5
1520 2 5.8 -10 0 0 0 0 1 5
1569 2 5.6 -9.8 0 0 0 0 1 5
1570 2 5.8 -9.8 0 0 0 0 1 5
1619 2 5.6 -9.6 0 0 0 0 1 5
1620 2 5.8 -9.6 0 0 0 0 1 5
1521 2 6 -10 0 0 0 0 1 5
1522 2 6.2 -10 0 0 0 0 1 5
1571 2 6 -9.8 0 0 0 0 1 5
1572 2 6.2 -9.8 0 0 0 0 1 5
1621 2 6 -9.6 0 0 0 0 1 5
1622 2 6.2 -9.6 0 0 0 0 1 5
1523 2 6.4 -10 0 0 0 0 1 5
1524 2 6.6 -10 0 0 0 0 1 5
1573 2 6.4 -9.8 0 0 0 0 1 5
1574 2 6.6 -9.8 0 0 0 0 1 5
1623 2 6.4 -9.6 0 0 0 0 1 5
1624 2 6.6 -9.6 0 0 0 0 1 5
1525 2 6.8 -10 0 0 0 0 1 5
1526 2 7 -10 0 0 0 0 1 5
1575 2 6.8 -9.8 0 0 0 0 1 5
1576 2 7 -9.8 0 0 0 0 1 5
1625 2 6.8 -9.6 0 0 0 0 1 5
1626 2 7 -9.6 0 0 0 0 1 5
1527 2 7.2 -10 0 0 0 0 1 5
1577 2 7.2 -9.8 0 0 0 0 1 5
1627 2 7.2 -9.6 0 0 0 0 1 5
1528 2 7.4 -10 0 0 0 0 1 5
1529 2 7.6 -10 0 0 0 0 1 5
1578 2 7.4 -9.8 0 0 0 0 1 5
1579 2 7.6 -9.8 0 0 0 0 1 5
1628 2 7.4 -9.6 0 0 0 0 1 5
1629 2 7.6 -9.6 0 0 0 0 1 5
1530 2 7.8 -10 0 0 0 0 1 5
1531 2 8 -10 0 0 0 0 1 5
1580 2 7.8 -9.8 0 0 0 0 1 5
1581 2 8 -9.8 0 0 0 0 1 5
1630 2 7.8 -9.6 0 0 0 0 1 5
1631 2 8 -9.6 0 0 0 0 1 5
1532 2 8.2 -10 0 0 0 0 1 5
1533 2 8.4 -10 0 0 0 0 1 5
1582 2 8.2 -9.8 0 0 0 0 1 5
1583 2 8.4 -9.8 0 0 0 0 1 5
1632 2 8.2 -9.6 0 0 0 0 1 5
1633 2 8.4 -9.6 0 0 0 0 1 5
1534 2 8.6 -10 0 0 0 0 1 5
1535 2 8.8 -10 0 0 0 0 1 5
1584 2 8.6 -9.8 0 0 0 0 1 5
1585 2 8.8 -9.8 0 0 0 0 1 5
1634 2 8.6 -9.6 0 0 0 0 1 5
1635 2 8.8 -9.6 0 0 0 0 1 5
1536 2 9 -10 0 0 0 0 1 5
1537 2 9.2 -10 0 0 0 0 1 5
1586 2 9 -9.8 0 0 0 0 1 5
1587 2 9.2 -9.8 0 0 0 0 1 5
1636 2 9 -9.6 0 0 0 0 1 5
1637 2 9.2 -9.6 0 0 0 0 1 5
1538 2 9.4 -10 0 0 0 0 1 5
1539 2 9.6 -10 0 0 0 0 1 5
1588 2 9.4 -9.8 0 0 0 0 1 5
1589 2 9.6 -9.8 0 0 0 0 1 5
1638 2 9.4 -9.6 0 0 0 0 1 5
1639 2 9.6 -9.6 0 0 0 0 1 5
1540 2 9.8 -10 0 0 0 0 1 5
1590 2 9.8 -9.8 0 0 0 0 1 5
1640 2 9.8 -9.6 0 0 0 0 1 5
1541 2 10 -10 0 0 0 0 1 5
1591 2 10 -9.8 0 0 0 0 1 5
1641 2 10 -9.6 0 0 0 0 1 5
1542 2 10.2 -10 0 0 0 0 1 5
1592 2 10.2 -9.8 0 0 0 0 1 5
1642 2 10.2 -9.6 0 0 0 0 1 5
1543 2 10.4 -10 0 0 0 0 1 5
1593 2 10.4 -9.8 0 0 0 0 1 5
1643 2 10.4 -9.6 0 0 0 0 1 5
1544 2 10.6 -10 0 0 0 0 1 5
1594 2 10.6 -9.8 0 0 0 0 1 5
1644 2 10.6 -9.6 0 0 0 0 1 5
1545 2 10.8 -10 0 0 0 0 1 5
1595 2 10.8 -9.8 0 0 0 0 1 5
1645 2 10.8 -9.6 0 0 0 0 1 5
1651 2 2 -9.4 0 0 0 0 1 5
1701 2 2 -9.2 0 0 0 0 1 5
1652 2 2.2 -9.4 0 0 0 0 1 5
1653 2 2.4 -9.4 0 0 0 0 1 5
1702 2 2.2 -9.2 0 0 0 0 1 5
1703 2 2.4 -9.2 0 0 0 0 1 5
1654 2 2.6 -9.4 0 0 0 0 1 5
1655 2 2.8 -9.4 0 0 0 0 1 5
1704 2 2.6 -9.2 0 0 0 0 1 5
1705 2 2.8 -9.2 0 0 0 0 1 5
1656 2 3 -9.4 0 0 0 0 1 5
1657 2 3.2 -9.4 0 0 0 0 1 5
1706 2 3 -9.2 0 0 0 0 1 5
1707 2 3.2 -9.2 0 0 0 0 1 5
1658 2 3.4 -9.4 0 0 0 0 1 5
1659 2 3.6 -9.4 0 0 0 0 1 5
1708 2 3.4 -9.2 0 0 0 0 1 5
1709 2 3.6 -9.2 0 0 0 0 1 5
1660 2 3.8 -9.4 0 0 0 0 1 5
1710 2 3.8 -9.2 0 0 0 0 1 5
1661 2 4 -9.4 0 0 0 0 1 5
1711 2 4 -9.2 0 0 0 0 1 5
1662 2 4.2 -9.4 0 0 0 0 1 5
1712 2 4.2 -9.2 0 0 0 0 1 5
1663 2 4.4 -9.4 0 0 0 0 1 5
1664 2 4.6 -9.4 0 0 0 0 1 5
1713 2 4.4 -9.2 0 0 0 0 1 5
1714 2 4.6 -9.2 0 0 0 0 1 5
1665 2 4.8 -9.4 0 0 0 0 1 5
1666 2 5 -9.4 0 0 0 0 1 5
1715 2 4.8 -9.2 0 0 0 0 1 5
1716 2 5 -9.2 0 0 0 0 1 5
1667 2 5.2 -9.4 0 0 0 0 1 5
1668 2 5.4 -9.4 0 0 0 0 1 5
1717 2 5.2 -9.2 0 0 0 0 1 5
1718 2 5.4 -9.2 0 0 0 0 1 5
1669 2 5.6 -9.4 0 0 0 0 1 5
1670 2 5.8 -9.4 0 0 0 0 1 5
1719 2 5.6 -9.2 0 0 0 0 1 5
1720 2 5.8 -9.2 0 0 0 0 1 5
1671 2 6 -9.4 0 0 0 0 1 5
1672 2 6.2 -9.4 0 0 0 0 1 5
1721 2 6 -9.2 0 0 0 0 1 5
1722 2 6.2 -9.2 0 0 0 0 1 5
1673 2 6.4 -9.4 0 0 0 0 1 5
1674 2 6.6 -9.4 0 0 0 0 1 5
1723 2 6.4 -9.2 0 0 0 0 1 5
1724 2 6.6 -9.2 0 0 0 0 1 5
1675 2 6.8 -9.4 0 0 0 0 1 5
1676 2 7 -9.4 0 0 0 0 1 5
1725 2 6.8 -9.2 0 0 0 0 1 5
1726 2 7 -9.2 0 0 0 0 1 5
1677 2 7.2 -9.4 0 0 0 0 1 5
1727 2 7.2 -9.2 0 0 0 0 1 5
1678 2 7.4 -9.4 0 0 0 0 1 5
1679 2 7.6 -9.4 0 0 0 0 1 5
1728 2 7.4 -9.2 0 0 0 0 1 5
1729 2 7.6 -9.2 0 0 0 0 1 5
1680 2 7.8 -9.4 0 0 0 0 1 5
1681 2 8 -9.4 0 0 0 0 1 5
1730 2 7.8 -9.2 0 0 0 0 1 5
1731 2 8 -9.2 0 0 0 0 1 5
1682 2 8.2 -9.4 0 0 0 0 1 5
1683 2 8.4 -9.4 0 0 0 0 1 5
1732 2 8.2 -9.2 0 0 0 0 1 5
1733 2 8.4 -9.2 0 0 0 0 1 5
1684 2 8.6 -9.4 0 0 0 0 1 5
1685 2 8.8 -9.4 0 0 0 0 1 5
1734 2 8.6 -9.2 0 0 0 0 1 5
1735 2 8.8 -9.2 0 0 0 0 1 5
1686 2 9 -9.4 0 0 0 0 1 5
1687 2 9.2 -9.4 0 0 0 0 1 5
1736 2 9 -9.2 0 0 0 0 1 5
1737 2 9.2 -9.2 0 0 0 0 1 5
1688 2 9.4 -9.4 0 0 0 0 1 5
1689 2 9.6 -9.4 0 0 0 0 1 5
1738 2 9.4 -9.2 0 0 0 0 1 5
1739 2 9.6 -9.2 0 0 0 0 1 5
1690 2 9.8 -9.4 0 0 0 0 1 5
1740 2 9.8 -9.2 0 0 0 0 1 5
1691 2 10 -9.4 0 0 0 0 1 5
1741 2 10 -9.2 0 0 0 0 1 5
1692 2 10.2 -9.4 0 0 0 0 1 5
1742 2 10.2 -9.2 0 0 0 0 1 5
1693 2 10.4 -9.4 0 0 0 0 1 5
1743 2 10.4 -9.2 0 0 0 0 1 5
1694 2 10.6 -9.4 0 0 0 0 1 5
1744 2 10.6 -9.2 0 0 0 0 1 5
1695 2 10.8 -9.4 0 0 0 0 1 5
1745 2 10.8 -9.2 0 0 0 0 1 5
1751 2 2 -9 0 0 0 0 1 5
1801 2 2 -8.8 0 0 0 0 1 5
1752 2 2.2 -9 0 0 0 0 1 5
1753 2 2.4 -9 0 0 0 0 1 5
1802 2 2.2 -8.8 0 0 0 0 1 5
1803 2 2.4 -8.8 0 0 0 0 1 5
1754 2 2.6 -9 0 0 0 0 1 5
1755 2 2.8 -9 0 0 0 0 1 5
1804 2 2.6 -8.8 0 0 0 0 1 5
1805 2 2.8 -8.8 0 0 0 0 1 5
1756 2 3 -9 0 0 0 0 1 5
1757 2 3.2 -9 0 0 0 0 1 5
1806 2 3 -8.8 0 0 0 0 1 5
1807 2 3.2 -8.8 0 0 0 0 1 5
1758 2 3.4 -9 0 0 0 0 1 5
1759 2 3.6 -9 0 0 0 0 1 5
1808 2 3.4 -8.8 0 0 0 0 1 5
1809 2 3.6 -8.8 0 0 0 0 1 5
1760 2 3.8 -9 0 0 0 0 1 5
1810 2 3.8 -8.8 0 0 0 0 1 5
1761 2 4 -9 0 0 0 0 1 5
1811 2 4 -8.8 0 0 0 0 1 5
1762 2 4.2 -9 0 0 0 0 1 5
1812 2 4.2 -8.8 0 0 0 0 1 5
1763 2 4.4 -9 0 0 0 0 1 5
1764 2 4.6 -9 0 0 0 0 1 5
1813 2 4.4 -8.8 0 0 0 0 1 5
1814 2 4.6 -8.8 0 0 0 0 1 5
1765 2 4.8 -9 0 0 0 0 1 5
1766 2 5 -9 0 0 0 0 1 5
1815 2 4.8 -8.8 0 0 0 0 1 5
1816 2 5 -8.8 0 0 0 0 1 5
1767 2 5.2 -9 0 0 0 0 1 5
1768 2 5.4 -9 0 0 0 0 1 5
1817 2 5.2 -8.8 0 0 0 0 1 5
1818 2 5.4 -8.8 0 0 0 0 1 5
1769 2 5.6 -9 0 0 0 0 1 5
1770 2 5.8 -9 0 0 0 0 1 5
1819 2 5.6 -8.8 0 0 0 0 1 5
1820 2 5.8 -8.8 0 0 0 0 1 5
1771 2 6 -9 0 0 0 0 1 5
1772 2 6.2 -9 0 0 0 0 1 5
1821 2 6 -8.8 0 0 0 0 1 5
1822 2 6.2 -8.8 0 0 0 0 1 5
1773 2 6.4 -9 0 0 0 0 1 5
1774 2 6.6 -9 0 0 0 0 1 5
1823 2 6.4 -8.8 0 0 0 0 1 5
1824 2 6.6 -8.8 0 0 0 0 1 5
1775 2 6.8 -9 0 0 0 0 1 5
1776 2 7 -9 0 0 0 0 1 5
1825 2 6.8 -8.8 0 0 0 0 1 5
1826 2 7 -8.8 0 0 0 0 1 5
1777 2 7.2 -9 0 0 0 0 1 5
1827 2 7.2 -8.8 0 0 0 0 1 5
1778 2 7.4 -9 0 0 0 0 1 5
1779 2 7.6 -9 0 0 0 0 1 5
1828 2 7.4 -8.8 0 0 0 0 1 5
1829 2 7.6 -8.8 0 0 0 0 1 5
1780 2 7.8 -9 0 0 0 0 1 5
1781 2 8 -9 0 0 0 0 1 5
1830 2 7.8 -8.8 0 0 0 0 1 5
1831 2 8 -8.8 0 0 0 0 1 5
1782 2 8.2 -9 0 0 0 0 1 5
1783 2 8.4 -9 0 0 0 0 1 5
1832 2 8.2 -8.8 0 0 0 0 1 5
1833 2 8.4 -8.8 0 0 0 0 1 5
1784 2 8.6 -9 0 0 0 0 1 5
1785 2 8.8 -9 0 0 0 0 1 5
1834 2 8.6 -8.8 0 0 0 0 1 5
1835 2 8.8 -8.8 0 0 0 0 1 5
1786 2 9 -9 0 0 0 0 1 5
1787 2 9.2 -9 0 0 0 0 1 5
1836 2 9 -8.8 0 0 0 0 1 5
1837 2 9.2 -8.8 0 0 0 0 1 5
1788 2 9.4 -9 0 0 0 0 1 5
1789 2 9.6 -9 0 0 0 0 1 5
1838 2 9.4 -8.8 0 0 0 0 1 5
1839 2 9.6 -8.8 0 0 0 0 1 5
1790 2 9.8 -9 0 0 0 0 1 5
1840 2 9.8 -8.8 0 0 0 0 1 5
1791 2 10 -9 0 0 0 0 1 5
1841 2 10 -8.8 0 0 0 0 1 5
1792 2 10.2 -9 0 0 0 0 1 5
1842 2 10.2 -8.8 0 0 0 0 1 5
1793 2 10.4 -9 0 0 0 0 1 5
1843 2 10.4 -8.8 0 0 0 0 1 5
1794 2 10.6 -9 0 0 0 0 1 5
1844 2 10.6 -8.8 0 0 0 0 1 5
1795 2 10.8 -9 0 0 0 0 1 5
1845 2 10.8 -8.8 0 0 0 0 1 5
1851 2 2 -8.6 0 0 0 0 1 5
1901 2 2 -8.4 0 0 0 0 1 5
1852 2 2.2 -8.6 0 0 0 0 1 5
1853 2 2.4 -8.6 0 0 0 0 1 5
1902 2 2.2 -8.4 0 0 0 0 1 5
1903 2 2.4 -8.4 0 0 0 0 1 5
1854 2 2.6 -8.6 0 0 0 0 1 5
1855 2 2.8 -8.6 0 0 0 0 1 5
1904 2 2.6 -8.4 0 0 0 0 1 5
1905 2 2.8 -8.4 0 0 0 0 1 5
1856 2 3 -8.6 0 0 0 0 1 5
1857 2 3.2 -8.6 0 0 0 0 1 5
1906 2 3 -8.4 0 0 0 0 1 5
1907 2 3.2 -8.4 0 0 0 0 1 5
1858 2 3.4 -8.6 0 0 0 0 1 5
1859 2 3.6 -8.6 0 0 0 0 1 5
1908 2 3.4 -8.4 0 0 0 0 1 5
1909 2 3.6 -8.4 0 0 0 0 1 5
1860 2 3.8 -8.6 0 0 0 0 1 5
1910 2 3.8 -8.4 0 0 0 0 1 5
1861 2 4 -8.6 0 0 0 0 1 5
1911 2 4 -8.4 0 0 0 0 1 5
1862 2 4.2 -8.6 0 0 0 0 1 5
1912 2 4.2 -8.4 0 0 0 0 1 5
1863 2 4.4 -8.6 0 0 0 0 1 5
1864 2 4.6 -8.6 0 0 0 0 1 5
1913 2 4.4 -8.4 0 0 0 0 1 5
1914 2 4.6 -8.4 0 0 0 0 1 5
1865 2 4.8 -8.6 0 0 0 0 1 5
1866 2 5 -8.6 0 0 0 0 1 5
1915 2 4.8 -8.4 0 0 0 0 1 5
1916 2 5 -8.4 0 0 0 0 1 5
1867 2 5.2 -8.6 0 0 0 0 1 5
1868 2 5.4 -8.6 0 0 0 0 1 5
1917 2 5.2 -8.4 0 0 0 0 1 5
1918 2 5.4 -8.4 0 0 0 0 1 5
1869 2 5.6 -8.6 0 0 0 0 1 5
1870 2 5.8 -8.6 0 0 0 0 1 5
1919 2 5.6 -8.4 0 0 0 0 1 5
1920 2 5.8 -8.4 0 0 0 0 1 5
1871 2 6 -8.6 0 0 0 0 1 5
1872 2 6.2 -8.6 0 0 0 0 1 5
1921 2 6 -8.4 0 0 0 0 1 5
1922 2 6.2 -8.4 0 0 0 0 1 5
1873 2 6.4 -8.6 0 0 0 0 1 5
1874 2 6.6 -8.6 0 0 0 0 1 5
1923 2 6.4 -8.4 0 0 0 0 1 5
1924 2 6.6 -8.4 0 0 0 0 1 5
1875 2 6.8 -8.6 0 0 0 0 1 5
1876 2 7 -8.6 0 0 0 0 1 5
1925 2 6.8 -8.4 0 0 0 0 1 5
1926 2 7 -8.4 0 0 0 0 1 5
1877 2 7.2 -8.6 0 0 0 0 1 5
1927 2 7.2 -8.4 0 0 0 0 1 5
1878 2 7.4 -8.6 0 0 0 0 1 5
1879 2 7.6 -8.6 0 0 0 0 1 5
1928 2 7.4 -8.4 0 0 0 0 1 5
1929 2 7.6 -8.4 0 0 0 0 1 5
1880 2 7.8 -8.6 0 0 0 0 1 5
1881 2 8 -8.6 0 0 0 0 1 5
1930 2 7.8 -8.4 0 0 0 0 1 5
1931 2 8 -8.4 0 0 0 0 1 5
1882 2 8.2 -8.6 0 0 0 0 1 5
1883 2 8.4 -8.6 0 0 0 0 1 5
1932 2 8.2 -8.4 0 0 0 0 1 5
1933 2 8.4 -8.4 0 0 0 0 1 5
1884 2 8.6 -8.6 0 0 0 0 1 5
1885 2 8.8 -8.6 0 0 0 0 1 5
1934 2 8.6 -8.4 0 0 0 0 1 5
1935 2 8.8 -8.4 0 0 0 0 1 5
1886 2 9 -8.6 0 0 0 0 1 5
1887 2 9.2 -8.6 0 0 0 0 1 5
1936 2 9 -8.4 0 0 0 0 1 5
1937 2 9.2 -8.4 0 0 0 0 1 5
1888 2 9.4 -8.6 0 0 0 0 1 5
1889 2 9.6 -8.6 0 0 0 0 1 5
1938 2 9.4 -8.4 0 0 0 0 1 5
1939 2 9.6 -8.4 0 0 0 0 1 5
1890 2 9.8 -8.6 0 0 0 0 1 5
1940 2 9.8 -8.4 0 0 0 0 1 5
1891 2 10 -8.6 0 0 0 0 1 5
1941 2 10 -8.4 0 0 0 0 1 5
1892 2 10.2 -8.6 0 0 0 0 1 5
1942 2 10.2 -8.4 0 0 0 0 1 5
1893 2 10.4 -8.6 0 0 0 0 1 5
1943 2 10.4 -8.4 0 0 0 0 1 5
1894 2 10.6 -8.6 0 0 0 0 1 5
1944 2 10.6 -8.4 0 0 0 0 1 5
1895 2 10.8 -8.6 0 0 0 0 1 5
1945 2 10.8 -8.4 0 0 0 0 1 5
1951 2 2 -8.2 0 0 0 0 1 5
2001 2 2 -8 0 0 0 0 1 5
1952 2 2.2 -8.2 0 0 0 0 1 5
1953 2 2.4 -8.2 0 0 0 0 1 5
2002 2 2.2 -8 0 0 0 0 1 5
2003 2 2.4 -8 0 0 0 0 1 5
1954 2 2.6 -8.2 0 0 0 0 1 5
1955 2 2.8 -8.2 0 0 0 0 1 5
2004 2 2.6 -8 0 0 0 0 1 5
2005 2 2.8 -8 0 0 0 0 1 5
1956 2 3 -8.2 0 0 0 0 1 5
1957 2 3.2 -8.2 0 0 0 0 1 5
2006 2 3 -8 0 0 0 0 1 5
2007 2 3.2 -8 0 0 0 0 1 5
1958 2 3.4 -8.2 0 0 0 0 1 5
1959 2 3.6 -8.2 0 0 0 0 1 5
2008 2 3.4 -8 0 0 0 0 1 5
2009 2 3.6 -8 0 0 0 0 1 5
1960 2 3.8 -8.2 0 0 0 0 1 5
2010 2 3.8 -8 0 0 0 0 1 5
1961 2 4 -8.2 0 0 0 0 1 5
2011 2 4 -8 0 0 0 0 1 5
1962 2 4.2 -8.2 0 0 0 0 1 5
2012 2 4.2 -8 0 0 0 0 1 5
1963 2 4.4 -8.2 0 0 0 0 1 5
1964 2 4.6 -8.2 0 0 0 0 1 5
2013 2 4.4 -8 0 0 0 0 1 5
2014 2 4.6 -8 0 0 0 0 1 5
1965 2 4.8 -8.2 0 0 0 0 1 5
1966 2 5 -8.2 0 0 0 0 1 5
2015 2 4.8 -8 0 0 0 0 1 5
2016 2 5 -8 0 0 0 0 1 5
1967 2 5.2 -8.2 0 0 0 0 1 5
1968 2 5.4 -8.2 0 0 0 0 1 5
2017 2 5.2 -8 0 0 0 0 1 5
2018 2 5.4 -8 0 0 0 0 1 5
1969 2 5.6 -8.2 0 0 0 0 1 5
1970 2 5.8 -8.2 0 0 0 0 1 5
2019 2 5.6 -8 0 0 0 0 1 5
2020 2 5.8 -8 0 0 0 0 1 5
1971 2 6 -8.2 0 0 0 0 1 5
1972 2 6.2 -8.2 0 0 0 0 1 5
2021 2 6 -8 0 0 0 0 1 5
2022 2 6.2 -8 0 0 0 0 1 5
1973 2 6.4 -8.2 0 0 0 0 1 5
1974 2 6.6 -8.2 0 0 0 0 1 5
2023 2 6.4 -8 0 0 0 0 1 5
2024 2 6.6 -8 0 0 0 0 1 5
1975 2 6.8 -8.2 0 0 0 0 1 5
1976 2 7 -8.2 0 0 0 0 1 5
2025 2 6.8 -8 0 0 0 0 1 5
2026 2 7 -8 0 0 0 0 1 5
1977 2 7.2 -8.2 0 0 0 0 1 5
2027 2 7.2 -8 0 0 0 0 1 5
1978 2 7.4 -8.2 0 0 0 0 1 5
1979 2 7.6 -8.2 0 0 0 0 1 5
2028 2 7.4 -8 0 0 0 0 1 5
2029 2 7.6 -8 0 0 0 0 1 5
1980 2 7.8 -8.2 0 0 0 0 1 5
1981 2 8 -8.2 0 0 0 0 1 5
2030 2 7.8 -8 0 0 0 0 1 5
2031 2 8 -8 0 0 0 0 1 5
1982 2 8.2 -8.2 0 0 0 0 1 5
1983 2 8.4 -8.2 0 0 0 0 1 5
2032 2 8.2 -8 0 0 0 0 1 5
2033 2 8.4 -8 0 0 0 0 1 5
1984 2 8.6 -8.2 0 0 0 0 1 5
1985 2 8.8 -8.2 0 0 0 0 1 5
2034 2 8.6 -8 0 0 0 0 1 5
2035 2 8.8 -8 0 0 0 0 1 5
1986 2 9 -8.2 0 0 0 0 1 5
1987 2 9.2 -8.2 0 0 0 0 1 5
2036 2 9 -8 0 0 0 0 1 5
2037 2 9.2 -8 0 0 0 0 1 5
1988 2 9.4 -8.2 0 0 0 0 1 5
1989 2 9.6 -8.2 0 0 0 0 1 5
2038 2 9.4 -8 0 0 0 0 1 5
2039 2 9.6 -8 0 0 0 0 1 5
1990 2 9.8 -8.2 0 0 0 0 1 5
2040 2 9.8 -8 0 0 0 0 1 5
1991 2 10 -8.2 0 0 0 0 1 5
2041 2 10 -8 0 0 0 0 1 5
1992 2 10.2 -8.2 0 0 0 0 1 5
2042 2 10.2 -8 0 0 0 0 1 5
1993 2 10.4 -8.2 0 0 0 0 1 5
2043 2 10.4 -8 0 0 0 0 1 5
1994 2 10.6 -8.2 0 0 0 0 1 5
2044 2 10.6 -8 0 0 0 0 1 5
1995 2 10.8 -8.2 0 0 0 0 1 5
2045 2 10.8 -8 0 0 0 0 1 5
2051 2 2 -7.8 0 0 0 0 1 5
2101 2 2 -7.6 0 0 0 0 1 5
2052 2 2.2 -7.8 0 0 0 0 1 5
2053 2 2.4 -7.8 0 0 0 0 1 5
2102 2 2.2 -7.6 0 0 0 0 1 5
2103 2 2.4 -7.6 0 0 0 0 1 5
2054 2 2.6 -7.8 0 0 0 0 1 5
2055 2 2.8 -7.8 0 0 0 0 1 5
2104 2 2.6 -7.6 0 0 0 0 1 5
2105 2 2.8 -7.6 0 0 0 0 1 5
2056 2 3 -7.8 0 0 0 0 1 5
2057 2 3.2 -7.8 0 0 0 0 1 5
2106 2 3 -7.6 0 0 0 0 1 5
2107 2 3.2 -7.6 0 0 0 0 1 5
2058 2 3.4 -7.8 0 0 0 0 1 5
2059 2 3.6 -7.8 0 0 0 0 1 5
2108 2 3.4 -7.6 0 0 0 0 1 5
2109 2 3.6 -7.6 0 0 0 0 1 5
2060 2 3.8 -7.8 0 0 0 0 1 5
2110 2 3.8 -7.6 0 0 0 0 1 5
2061 2 4 -7.8 0 0 0 0 1 5
2111 2 4 -7.6 0 0 0 0 1 5
2062 2 4.2 -7.8 0 0 0 0 1 5
2112 2 4.2 -7.6 0 0 0 0 1 5
2063 2 4.4 -7.8 0 0 0 0 1 5
2064 2 4.6 -7.8 0 0 0 0 1 5
2113 2 4.4 -7.6 0 0 0 0 1 5
2114 2 4.6 -7.6 0 0 0 0 1 5
2065 2 4.8 -7.8 0 0 0 0 1 5
2066 2 5 -7.8 0 0 0 0 1 5
2115 2 4.8 -7.6 0 0 0 0 1 5
2116 2 5 -7.6 0 0 0 0 1 5
2067 2 5.2 -7.8 0 0 0 0 1 5
2068 2 5.4 -7.8 0 0 0 0 1 5
2117 2 5.2 -7.6 0 0 0 0 1 5
2118 2 5.4 -7.6 0 0 0 0 1 5
2069 2 5.6 -7.8 0 0 0 0 1 5
2070 2 5.8 -7.8 0 0 0 0 1 5
2119 2 5.6 -7.6 0 0 0 0 1 5
2120 2 5.8 -7.6 0 0 0 0 1 5
2071 2 6 -7.8 0 0 0 0 1 5
2072 2 6.2 -7.8 0 0 0 0 1 5
2121 2 6 -7.6 0 0 0 0 1 5
2122 2 6.2 -7.6 0 0 0 0 1 5
2073 2 6.4 -7.8 0 0 0 0 1 5
2074 2 6.6 -7.8 0 0 0 0 1 5
2123 2 6.4 -7.6 0 0 0 0 1 5
2124 2 6.6 -7.6 0 0 0 0 1 5
2075 2 6.8 -7.8 0 0 0 0 1 5
2076 2 7 -7.8 0 0 0 0 1 5
2125 2 6.8 -7.6 0 0 0 0 1 5
2126 2 7 -7.6 0 0 0 0 1 5
2077 2 7.2 -7.8 0 0 0 0 1 5
2127 2 7.2 -7.6 0 0 0 0 1 5
2078 2 7.4 -7.8 0 0 0 0 1 5
2079 2 7.6 -7.8 0 0 0 0 1 5
2128 2 7.4 -7.6 0 0 0 0 1 5
2129 2 7.6 -7.6 0 0 0 0 1 5
2080 2 7.8 -7.8 0 0 0 0 1 5
2081 2 8 -7.8 0 0 0 0 1 5
2130 2 7.8 -7.6 0 0 0 0 1 5
2131 2 8 -7.6 0 0 0 0 1 5
2082 2 8.2 -7.8 0 0 0 0 1 5
2083 2 8.4 -7.8 0 0 0 0 1 5
2132 2 8.2 -7.6 0 0 0 0 1 5
2133 2 8.4 -7.6 0 0 0 0 1 5
2084 2 8.6 -7.8 0 0 0 0 1 5
2085 2 8.8 -7.8 0 0 0 0 1 5
2134 2 8.6 -7.6 0 0 0 0 1 5
2135 2 8.8 -7.6 0 0 0 0 1 5
2086 2 9 -7.8 0 0 0 0 1 5
2087 2 9.2 -7.8 0 0 0 0 1 5
2136 2 9 -7.6 0 0 0 0 1 5
2137 2 9.2 -7.6 0 0 0 0 1 5
2088 2 9.4 -7.8 0 0 0 0 1 5
2089 2 9.6 -7.8 0 0 0 0 1 5
2138 2 9.4 -7.6 0 0 0 0 1 5
2139 2 9.6 -7.6 0 0 0 0 1 5
2090 2 9.8 -7.8 0 0 0 0 1 5
2140 2 9.8 -7.6 0 0 0 0 1 5
2091 2 10 -7.8 0 0 0 0 1 5
2141 2 10 -7.6 0 0 0 0 1 5
2092 2 10.2 -7.8 0 0 0 0 1 5
2142 2 10.2 -7.6 0 0 0 0 1 5
2093 2 10.4 -7.8 0 0 0 0 1 5
2143 2 10.4 -7.6 0 0 0 0 1 5
2094 2 10.6 -7.8 0 0 0 0 1 5
2144 2 10.6 -7.6 0 0 0 0 1 5
2095 2 10.8 -7.8 0 0 0 0 1 5
2145 2 10.8 -7.6 0 0 0 0 1 5
2151 2 2 -7.4 0 0 0 0 0.998817 5
2201 2 2 -7.2 0 0 0 0 1.00015 5
2152 2 2.2 -7.4 0 0 0 0 0.99974 5
2153 2 2.4 -7.4 0 0 0 0 0.999836 5
2202 2 2.2 -7.2 0 0 0 0 0.999081 5
2203 2 2.4 -7.2 0 0 0 0 0.999689 5
2154 2 2.6 -7.4 0 0 0 0 1.00128 5
2155 2 2.8 -7.4 0 0 0 0 1.00044 5
2204 2 2.6 -7.2 0 0 0 0 1.00051 5
2205 2 2.8 -7.2 0 0 0 0 0.999945 5
2156 2 3 -7.4 0 0 0 0 0.995577 5
2157 2 3.2 -7.4 0 0 0 0 1.00006 5
2206 2 3 -7.2 0 0 0 0 0.998722 5
2207 2 3.2 -7.2 0 0 0 0 1.00038 5
2158 2 3.4 -7.4 0 0 0 0 1.00059 5
2159 2 3.6 -7.4 0 0 0 0 1.00078 5
2208 2 3.4 -7.2 0 0 0 0 1.00083 5
2209 2 3.6 -7.2 0 0 0 0 1.00311 5
2160 2 3.8 -7.4 0 0 0 0 1.01449 5
2210 2 3.8 -7.2 0 0 0 0 1.01304 5
2161 2 4 -7.4 0 0 0 0 1.03225 5
2211 2 4 -7.2 0 0 0 0 1.02619 5
2162 2 4.2 -7.4 0 0 0 0 1.03777 5
2212 2 4.2 -7.2 0 0 0 0 1.03617 5
2163 2 4.4 -7.4 0 0 0 0 1.03601 5
2164 2 4.6 -7.4 0 0 0 0 1.02944 5
2213 2 4.4 -7.2 0 0 0 0 1.03594 5
2214 2 4.6 -7.2 0 0 0 0 1.03056 5
2165 2 4.8 -7.4 0 0 0 0 1.02891 5
2166 2 5 -7.4 0 0 0 0 1.02877 5
2215 2 4.8 -7.2 0 0 0 0 1.02954 5
2216 2 5 -7.2 0 0 0 0 1.0295 5
2167 2 5.2 -7.4 0 0 0 0 1.0287 5
2168 2 5.4 -7.4 0 0 0 0 1.02852 5
2217 2 5.2 -7.2 0 0 0 0 1.0294 5
2218 2 5.4 -7.2 0 0 0 0 1.02916 5
2169 2 5.6 -7.4 0 0 0 0 1.0284 5
2170 2 5.8 -7.4 0 0 0 0 1.02839 5
2219 2 5.6 -7.2 0 0 0 0 1.02898 5
2220 2 5.8 -7.2 0 0 0 0 1.02887 5
2171 2 6 -7.4 0 0 0 0 1.02836 5
2172 2 6.2 -7.4 0 0 0 0 1.0283 5
2221 2 6 -7.2 0 0 0 0 1.02878 5
2222 2 6.2 -7.2 0 0 0 0 1.02871 5
2173 2 6.4 -7.4 0 0 0 0 1.02793 5
2174 2 6.6 -7.4 0 0 0 0 1.02788 5
2223 2 6.4 -7.2 0 0 0 0 1.02864 5
2224 2 6.6 -7.2 0 0 0 0 1.0286 5
2175 2 6.8 -7.4 0 0 0 0 1.02792 5
2176 2 7 -7.4 0 0 0 0 1.02816 5
2225 2 6.8 -7.2 0 0 0 0 1.0286 5
2226 2 7 -7.2 0 0 0 0 1.0286 5
2177 2 7.2 -7.4 0 0 0 0 1.02787 5
2227 2 7.2 -7.2 0 0 0 0 1.02858 5
2178 2 7.4 -7.4 0 0 0 0 1.02782 5
2179 2 7.6 -7.4 0 0 0 0 1.02788 5
2228 2 7.4 -7.2 0 0 0 0 1.02851 5
2229 2 7.6 -7.2 0 0 0 0 1.02852 5
2180 2 7.8 -7.4 0 0 0 0 1.02795 5
2181 2 8 -7.4 0 0 0 0 1.0278 5
2230 2 7.8 -7.2 0 0 0 0 1.02855 5
2231 2 8 -7.2 0 0 0 0 1.02847 5
2182 2 8.2 -7.4 0 0 0 0 1.02771 5
2183 2 8.4 -7.4 0 0 0 0 1.0278 5
2232 2 8.2 -7.2 0 0 0 0 1.02839 5
2233 2 8.4 -7.2 0 0 0 0 1.02842 5
2184 2 8.6 -7.4 0 0 0 0 1.02796 5
2185 2 8.8 -7.4 0 0 0 0 1.02802 5
2234 2 8.6 -7.2 0 0 0 0 1.02842 5
2235 2 8.8 -7.2 0 0 0 0 1.0284 5
2186 2 9 -7.4 0 0 0 0 1.0279 5
2187 2 9.2 -7.4 0 0 0 0 1.02794 5
2236 2 9 -7.2 0 0 0 0 1.02835 5
2237 2 9.2 -7.2 0 0 0 0 1.02833 5
2188 2 9.4 -7.4 0 0 0 0 1.02771 5
2189 2 9.6 -7.4 0 0 0 0 1.02766 5
2238 2 9.4 -7.2 0 0 0 0 1.02828 5
2239 2 9.6 -7.2 0 0 0 0 1.02823 5
2190 2 9.8 -7.4 0 0 0 0 1.02755 5
2240 2 9.8 -7.2 0 0 0 0 1.0282 5
2191 2 10 -7.4 0 0 0 0 1.0276 5
2241 2 10 -7.2 0 0 0 0 1.02826 5
2192 2 10.2 -7.4 0 0 0 0 1.02789 5
2242 2 10.2 -7.2 0 0 0 0 1.02829 5
2193 2 10.4 -7.4 0 0 0 0 1.02796 5
2243 2 10.4 -7.2 0 0 0 0 1.02833 5
2194 2 10.6 -7.4 0 0 0 0 1.02798 5
2244 2 10.6 -7.2 0 0 0 0 1.02837 5
2195 2 10.8 -7.4 0 0 0 0 1.02805 5
2245 2 10.8 -7.2 0 0 0 0 1.02841 5
16346 1 0.966075 -6.73426 0.02 0 0 0 1 2
16347 1 1.16006 -6.74554 0.02 0 -1.59786e-16 -1.83756e-16 1 2
16348 1 1.35411 -6.73088 0.02 0 -1.03338e-08 -2.54579e-09 1 2
16349 1 1.55695 -6.7611 0.02 0 -0.000144111 -6.29738e-05 1 2
16350 1 1.77505 -6.75596 0.02 0 -0.00214459 -0.000649674 1 2
16351 1 1.9841 -6.75919 0.02 0 -0.0039403 -0.000610062 1 2
16352 1 2.18848 -6.74368 0.02 0 -0.0028502 -0.000418788 1 2
16353 1 2.39725 -6.75716 0.02 0 -0.00305982 -0.000455059 1 2
2251 2 2 -7 0 0 0 0 1.00083 5
15661 1 2.80734 -6.76311 0.02 0 -0.00321137 -0.000410602 1 2
16354 1 2.60482 -6.74173 0.02 0 -0.0025681 -0.000446211 1 2
2252 2 2.2 -7 0 0 0 0 0.999226 5
2253 2 2.4 -7 0 0 0 0 0.99965 5
15662 1 3.00688 -6.73741 0.02 0 -0.00240906 -0.000398647 1 2
15663 1 3.19966 -6.74525 0.02 0 -0.00283133 -0.000449737 1 2
2254 2 2.6 -7 0 0 0 0 1.00025 5
2255 2 2.8 -7 0 0 0 0 0.999978 5
15664 1 3.39305 -6.74496 0.02 0 -0.00288124 -0.000315699 1 2
15665 1 3.60096 -6.75843 0.02 0 -0.00361747 -9.72432e-05 1 2
2256 2 3 -7 0 0 0 0 0.999498 5
2257 2 3.2 -7 0 0 0 0 1.00017 5
15666 1 3.83546 -6.77278 0.02 0 -0.00894868 0.000418923 1 2
15667 1 3.99956 -6.74213 0.02 0 -0.00614511 0.000555415 1.02653 2
2258 2 3.4 -7 0 0 0 0 1.00043 5
2259 2 3.6 -7 0 0 0 0 1.00309 5
2260 2 3.8 -7 0 0 0 0 1.01292 5
15668 1 4.13057 -6.65191 0.0104206 0.00327747 -0.000471168 -0.000381544 1.03698 0
15669 1 4.05308 -6.8234 0.00371585 -0.000864476 -0.000386745 0.000180504 1.04105 0
15670 1 4.29133 -6.6418 0.00937609 0.00243497 -0.00011099 -6.60215e-05 1.03728 0
15671 1 4.44932 -6.59274 0.0105514 0.00190912 1.35948e-05 7.94569e-06 1.0331 0
14985 1 4.28041 -6.79641 0.0050842 -8.66108e-05 -0.000167433 7.55883e-06 1.04037 0
2261 2 4 -7 0 0 0 0 1.02435 5
2262 2 4.2 -7 0 0 0 0 1.0344 5
14982 1 4.59631 -6.56854 0.0103502 0.00172466 1.55165e-05 7.38031e-06 1.03093 0
14986 1 4.49405 -6.73844 0.00645869 0.000431568 9.37827e-06 6.31321e-06 1.03222 0
14991 1 4.74247 -6.6179 0.0081465 0.00107027 9.86879e-06 2.75538e-06 1.03025 0
14994 1 4.64811 -6.77879 0.00463325 2.26262e-05 8.19027e-06 3.7218e-06 1.03157 0
2263 2 4.4 -7 0 0 0 0 1.03593 5
2264 2 4.6 -7 0 0 0 0 1.03142 5
14995 1 4.91107 -6.60982 0.00723332 0.000813377 1.00157e-05 2.09777e-07 1.0302 0
14300 1 4.83174 -6.77783 0.00372985 -0.000116335 4.30961e-06 9.29185e-08 1.03138 0
14304 1 5.01114 -6.69838 0.00466332 0.000294339 7.70222e-06 -6.77092e-07 1.0302 0
14308 1 5.12189 -6.78156 0.00282396 -0.00026327 5.60184e-06 -1.13884e-06 1.03106 0
2265 2 4.8 -7 0 0 0 0 1.03018 5
2266 2 5 -7 0 0 0 0 1.03008 5
14301 1 5.26529 -6.59581 0.00593497 0.000552788 1.09149e-05 -1.93161e-06 1.02968 0
13616 1 5.29125 -6.7611 0.00282093 -0.000200379 5.9609e-06 -1.47206e-06 1.03059 0
13619 1 5.43973 -6.66089 0.00421142 0.000277868 8.10591e-06 -1.68974e-06 1.02938 0
12903 1 5.52553 -6.77561 0.00228659 -0.000261539 4.84471e-06 -1.40152e-06 1.03027 0
2267 2 5.2 -7 0 0 0 0 1.02997 5
2268 2 5.4 -7 0 0 0 0 1.02969 5
12907 1 5.69272 -6.76694 0.00218715 -0.000224042 4.00929e-06 -1.14363e-06 1.03003 0
12210 1 5.86312 -6.76111 0.00208449 -0.000213814 2.97605e-06 -7.84827e-07 1.02986 0
2269 2 5.6 -7 0 0 0 0 1.02948 5
2270 2 5.8 -7 0 0 0 0 1.02932 5
13615 1 5.70304 -6.60653 0.00450684 0.000367703 7.02497e-06 -1.45234e-06 1.02906 0
11540 1 6.02564 -6.74466 0.00211666 -0.000166918 1.88072e-06 -5.33699e-07 1.02964 0
11552 1 6.18855 -6.75122 0.00187121 -0.000209742 6.71705e-07 -1.70792e-07 1.02966 0
10855 1 6.35718 -6.77051 0.0015608 -0.000259887 -2.66525e-07 1.51625e-07 1.02964 0
2271 2 6 -7 0 0 0 0 1.02918 5
2272 2 6.2 -7 0 0 0 0 1.02912 5
12911 1 6.38967 -6.6139 0.00331555 0.000207037 -5.92557e-07 3.23689e-07 1.02868 0
10858 1 6.60174 -6.66158 0.00252834 8.42361e-05 -1.81356e-06 5.0166e-07 1.02873 0
10169 1 6.57114 -6.8247 0.00117868 -0.000462199 -1.00841e-06 4.34139e-07 1.02987 0
10172 1 6.76459 -6.70634 0.00194387 -2.52832e-05 -2.30259e-06 5.85917e-07 1.02892 0
2273 2 6.4 -7 0 0 0 0 1.02913 5
2274 2 6.6 -7 0 0 0 0 1.0291 5
3109 1 6.91519 -6.76658 0.00136134 -0.000277327 -2.34535e-06 5.9067e-07 1.02952 0
3113 1 7.08456 -6.76345 0.0013245 -0.000275816 -2.85738e-06 8.88925e-07 1.02954 0
2275 2 6.8 -7 0 0 0 0 1.029 5
2276 2 7 -7 0 0 0 0 1.02898 5
10861 1 7.24172 -6.60222 0.00273505 0.000106599 -4.56517e-06 1.71672e-06 1.02855 0
3115 1 7.27671 -6.74454 0.00139996 -0.000191529 -3.35313e-06 1.32903e-06 1.02922 0
3116 1 7.61772 -6.69727 0.00165673 -4.60257e-05 -3.7859e-06 2.01334e-06 1.02877 0
3119 1 7.42987 -6.82279 0.000955627 -0.000480213 -3.11863e-06 1.5501e-06 1.02971 0
2277 2 7.2 -7 0 0 0 0 1.02899 5
2278 2 7.4 -7 0 0 0 0 1.02901 5
2279 2 7.6 -7 0 0 0 0 1.02901 5
3117 1 7.85628 -6.64555 0.00203771 -1.32632e-06 -3.67388e-06 2.4609e-06 1.0286 0
3121 1 7.74539 -6.81335 0.000917168 -0.00043562 -2.89076e-06 1.66526e-06 1.02965 0
3123 1 7.97032 -6.76513 0.00112335 -0.000293324 -2.74603e-06 1.79608e-06 1.02933 0
2280 2 7.8 -7 0 0 0 0 1.029 5
2281 2 8 -7 0 0 0 0 1.02893 5
3118 1 8.13031 -6.6496 0.00191849 -2.02793e-05 -2.51205e-06 2.22598e-06 1.02852 0
3108 1 8.30063 -6.64312 0.00190786 -2.84424e-05 -1.66176e-06 2.09744e-06 1.0285 0
3125 1 8.19024 -6.82235 0.000849315 -0.00049688 -1.96213e-06 1.24294e-06 1.02954 0
3120 1 8.47953 -6.60169 0.00218682 5.64233e-06 -5.25773e-07 1.97635e-06 1.02839 0
3126 1 8.44243 -6.76803 0.00103517 -0.000319651 -1.01989e-06 1.0624e-06 1.0293 0
2282 2 8.2 -7 0 0 0 0 1.02889 5
2283 2 8.4 -7 0 0 0 0 1.02886 5
3127 1 8.62782 -6.77505 0.000958457 -0.000366873 -1.16516e-07 6.78027e-07 1.02936 0
3128 1 8.81356 -6.75495 0.00104933 -0.00030456 8.05246e-07 3.84989e-07 1.02917 0
2284 2 8.6 -7 0 0 0 0 1.02881 5
2285 2 8.8 -7 0 0 0 0 1.02877 5
3122 1 8.66167 -6.59808 0.00215126 6.00006e-06 7.16067e-07 1.51843e-06 1.02836 0
3129 1 8.99258 -6.77059 0.000939489 -0.000370286 1.53118e-06 -1.16298e-07 1.02928 0
3130 1 9.17596 -6.75967 0.000971715 -0.000338348 2.26633e-06 -5.15192e-07 1.02918 0
2286 2 9 -7 0 0 0 0 1.02873 5
2287 2 9.2 -7 0 0 0 0 1.02869 5
3131 1 9.35592 -6.73491 0.0010679 -0.000242085 2.985e-06 -8.58136e-07 1.0289 0
3132 1 9.52288 -6.79331 0.000775632 -0.000438748 2.829e-06 -1.32964e-06 1.02932 0
3133 1 9.72198 -6.69136 0.00120495 -9.81504e-05 3.44467e-06 -1.44224e-06 1.02846 0
2288 2 9.4 -7 0 0 0 0 1.02867 5
2289 2 9.6 -7 0 0 0 0 1.02868 5
3134 1 9.82685 -6.8156 0.000655832 -0.000487089 2.51477e-06 -1.47181e-06 1.02932 0
3135 1 10.0139 -6.73065 0.00096091 -0.000208088 2.50946e-06 -1.27131e-06 1.02882 0
2290 2 9.8 -7 0 0 0 0 1.02868 5
2291 2 10 -7 0 0 0 0 1.02865 5
3136 1 10.1882 -6.7593 0.000797601 -0.000321128 1.97241e-06 -9.94442e-07 1.0291 0
3137 1 10.3687 -6.75977 0.000787392 -0.000315731 1.37717e-06 -7.35778e-07 1.02912 0
3138 1 10.5543 -6.76469 0.000765721 -0.000324791 6.84889e-07 -4.52785e-07 1.02919 0
2292 2 10.2 -7 0 0 0 0 1.02863 5
2293 2 10.4 -7 0 0 0 0 1.02868 5
3139 1 10.7493 -6.76 0.000777611 -0.000302362 -1.75202e-08 -1.75916e-07 1.02918 0
3140 1 10.9357 -6.76417 0.00075549 -0.000318463 -6.01091e-07 1.1583e-07 1.02925 0
2294 2 10.6 -7 0 0 0 0 1.02872 5
2295 2 10.8 -7 0 0 0 0 1.02875 5
16355 1 0.930853 -6.55533 0.02 0 0 0 1 2
16356 1 1.13706 -6.55766 0.02 0 0 0 1 2
16357 1 0.920786 -6.36917 0.02 0 0 0 1 2
16358 1 1.12143 -6.36811 0.02 0 0 0 1 2
16359 1 0.966013 -6.17777 0.02 0 0 0 1 2
16360 1 1.16415 -6.17528 0.02 0 0 0 1 2
16361 1 1.34576 -6.55239 0.02 0 -1.43928e-11 -3.40872e-12 1 2
16362 1 1.5546 -6.57675 0.02 0 -7.62629e-07 -6.19919e-08 1 2
16363 1 1.32241 -6.37182 0.02 0 0 0 1 2
16364 1 1.5338 -6.39378 0.02 0 -1.40896e-13 6.52445e-16 1 2
16365 1 1.36802 -6.19145 0.02 0 3.50128e-24 1.6179e-22 1 2
16366 1 1.56781 -6.20716 0.02 0 5.11202e-10 2.43557e-08 1 2
16367 1 1.96048 -6.58171 0.02 0 -3.23979e-06 0.000316683 1 2
16368 1 1.75377 -6.57331 0.02 0 -3.89476e-05 2.63399e-05 1 2
16369 1 1.75287 -6.39507 0.02 0 2.99525e-06 5.60305e-06 1 2
16370 1 1.98282 -6.41182 0.02 0 5.54348e-05 0.000115282 1 2
16371 1 1.76595 -6.21147 0.02 0 5.85452e-08 6.67752e-07 1 2
16372 1 1.96384 -6.23254 0.02 0 2.74421e-06 6.32921e-06 1 2
16373 1 2.18749 -6.5713 0.02 0 0.000106108 0.000399532 1 2
16374 1 2.40904 -6.57502 0.02 0 9.61071e-05 0.000440079 1 2
16375 1 2.19631 -6.3972 0.02 0 0.000100906 0.000151763 1 2
16376 1 2.3935 -6.38879 0.02 0 0.000124511 0.00015567 1 2
16377 1 2.16547 -6.21344 0.02 0 8.47174e-06 1.52079e-05 1 2
16378 1 2.36485 -6.19278 0.02 0 7.57124e-06 1.55895e-05 1 2
15694 1 2.80442 -6.56957 0.02 0 0.000106677 0.000361127 1 2
16379 1 2.61224 -6.55391 0.02 0 0.000162424 0.000362388 1 2
16380 1 2.58575 -6.3623 0.02 0 8.95795e-05 0.000121022 1 2
16381 1 2.7876 -6.37376 0.02 0 9.91919e-05 0.000130869 1 2
16382 1 2.75526 -6.17725 0.02 0 5.34854e-06 1.24001e-05 1 2
15695 1 2.9517 -6.17242 0.02 0 5.17743e-06 1.16193e-05 1 2
15696 1 2.98981 -6.548 0.02 0 0.000192927 0.000377719 1 2
15698 1 3.18352 -6.55339 0.02 0 0.00020608 0.000413659 1 2
15699 1 2.99732 -6.36064 0.02 0 8.18151e-05 0.000106808 1 2
15700 1 3.20949 -6.36725 0.02 0 8.41013e-05 0.000128778 1 2
15701 1 3.15791 -6.18432 0.02 0 6.54142e-06 1.27267e-05 1 2
15697 1 3.3919 -6.56753 0.02 0 0.000167358 0.000395675 1 2
15702 1 3.37958 -6.20217 0.02 0 7.8971e-06 1.37275e-05 1 2
15704 1 3.61144 -6.57879 0.02 0 -0.000440241 0.000522333 1 2
15705 1 3.40962 -6.38875 0.02 0 9.70563e-05 0.000154837 1 2
15706 1 3.602 -6.39164 0.02 0 -0.000194085 0.000175895 1 2
15708 1 3.59266 -6.19888 0.02 0 -0.000189579 1.37205e-05 1 2
15703 1 3.82352 -6.59334 0.02 0 -0.00336433 0.000896558 1 2
15707 1 3.79674 -6.4155 0.02 0 -0.00192461 0.000606052 1 2
15709 1 3.79583 -6.22273 0.02 0 -0.00166172 0.000165152 1 2
15711 1 4.00027 -6.56181 0.0184569 0.00052821 -0.00617226 0.00211284 1.02186 0
15712 1 3.99724 -6.38406 0.02 0 -0.00570013 0.00144709 1 2
15714 1 3.99198 -6.19544 0.02 0 -0.00534398 0.000709402 1 2
15715 1 3.99978 -6.20335 0.02 0 -0.00361367 0.000483652 1.01772 2
15710 1 4.18018 -6.50706 0.0117722 0.00420024 -0.00014652 1.62476e-05 1.03825 0
15713 1 4.13148 -6.32157 0.0116689 0.00287316 -0.000192389 0.000110175 1.03399 0
15717 1 3.99956 -6.47127 0.02 0 -0.00376931 0.00119317 1.02338 2
15718 1 4.2799 -6.32559 0.011504 0.0039705 -6.12672e-05 5.38566e-05 1.03759 0
15719 1 4.29466 -6.17427 0.0116658 0.00347773 -0.00010267 2.86932e-05 1.03643 0
14998 1 4.32488 -6.48561 0.0117677 0.00372963 5.36496e-06 4.33952e-05 1.0372 0
15716 1 4.44458 -6.39886 0.0132585 0.00329506 1.77815e-05 2.48155e-05 1.03356 0
15720 1 4.45112 -6.2006 0.0141759 0.00368102 -6.77506e-06 1.19919e-05 1.03269 0
14999 1 4.66301 -6.41829 0.0123215 0.00245366 1.32331e-05 6.68431e-06 1.03087 0
15000 1 4.61614 -6.14555 0.0145606 0.00359836 5.74098e-06 3.82015e-06 1.03078 0
15001 1 4.56591 -6.31758 0.0138075 0.00320532 1.01581e-05 8.50744e-06 1.0314 0
15003 1 4.74967 -6.24596 0.0134843 0.003018 9.67263e-06 2.2833e-06 1.03081 0