ITEM: TIMESTEP
59000
ITEM: NUMBER OF ATOMS
12181
ITEM: BOX BOUNDS ff ff pp
0.0000000000000000e+00 2.2000000000000000e+01
-1.0000000000000000e+01 1.0000000000000000e+01
-2.0000000000000000e-02 2.0000000000000000e-02
ITEM: ATOMS id type x y vx vy fx fy c_den c_phase
1501 2 2 -10 0 0 0 0 1 5
1535 2 2 -9.8 0 0 0 0 1 5
1569 2 2 -9.6 0 0 0 0 1 5
1502 2 2.2 -10 0 0 0 0 1 5
1503 2 2.4 -10 0 0 0 0 1 5
1536 2 2.2 -9.8 0 0 0 0 1 5
1537 2 2.4 -9.8 0 0 0 0 1 5
1570 2 2.2 -9.6 0 0 0 0 1 5
1571 2 2.4 -9.6 0 0 0 0 1 5
1504 2 2.6 -10 0 0 0 0 1 5
1505 2 2.8 -10 0 0 0 0 1 5
1538 2 2.6 -9.8 0 0 0 0 1 5
1539 2 2.8 -9.8 0 0 0 0 1 5
1572 2 2.6 -9.6 0 0 0 0 1 5
1573 2 2.8 -9.6 0 0 0 0 1 5
1506 2 3 -10 0 0 0 0 1 5
1540 2 3 -9.8 0 0 0 0 1 5
1574 2 3 -9.6 0 0 0 0 1 5
1507 2 3.2 -10 0 0 0 0 1 5
1541 2 3.2 -9.8 0 0 0 0 1 5
1575 2 3.2 -9.6 0 0 0 0 1 5
1508 2 3.4 -10 0 0 0 0 1 5
1542 2 3.4 -9.8 0 0 0 0 1 5
1576 2 3.4 -9.6 0 0 0 0 1 5
1509 2 3.6 -10 0 0 0 0 1 5
1543 2 3.6 -9.8 0 0 0 0 1 5
1577 2 3.6 -9.6 0 0 0 0 1 5
1510 2 3.8 -10 0 0 0 0 1 5
1544 2 3.8 -9.8 0 0 0 0 1 5
1578 2 3.8 -9.6 0 0 0 0 1 5
1511 2 4 -10 0 0 0 0 1 5
1512 2 4.2 -10 0 0 0 0 1 5
1545 2 4 -9.8 0 0 0 0 1 5
1546 2 4.2 -9.8 0 0 0 0 1 5
1579 2 4 -9.6 0 0 0 0 1 5
1580 2 4.2 -9.6 0 0 0 0 1 5
1513 2 4.4 -10 0 0 0 0 1 5
1514 2 4.6 -10 0 0 0 0 1 5
1547 2 4.4 -9.8 0 0 0 0 1 5
1548 2 4.6 -9.8 0 0 0 0 1 5
1581 2 4.4 -9.6 0 0 0 0 1 5
1582 2 4.6 -9.6 0 0 0 0 1 5
1515 2 4.8 -10 0 0 0 0 1 5
1516 2 5 -10 0 0 0 0 1 5
1549 2 4.8 -9.8 0 0 0 0 1 5
1550 2 5 -9.8 0 0 0 0 1 5
1583 2 4.8 -9.6 0 0 0 0 1 5
1584 2 5 -9.6 0 0 0 0 1 5
1517 2 5.2 -10 0 0 0 0 1 5
1518 2 5.4 -10 0 0 0 0 1 5
1551 2 5.2 -9.8 0 0 0 0 1 5
1552 2 5.4 -9.8 0 0 0 0 1 5
1585 2 5.2 -9.6 0 0 0 0 1 5
1586 2 5.4 -9.6 0 0 0 0 1 5
1519 2 5.6 -10 0 0 0 0 1 5
1553 2 5.6 -9.8 0 0 0 0 1 5
1587 2 5.6 -9.6 0 0 0 0 1 5
1520 2 5.8 -10 0 0 0 0 1 5
1554 2 5.8 -9.8 0 0 0 0 1 5
1588 2 5.8 -9.6 0 0 0 0 1 5
1521 2 6 -10 0 0 0 0 1 5
1555 2 6 -9.8 0 0 0 0 1 5
1589 2 6 -9.6 0 0 0 0 1 5
1522 2 6.2 -10 0 0 0 0 1 5
1523 2 6.4 -10 0 0 0 0 1 5
1556 2 6.2 -9.8 0 0 0 0 1 5
1557 2 6.4 -9.8 0 0 0 0 1 5
1590 2 6.2 -9.6 0 0 0 0 1 5
1591 2 6.4 -9.6 0 0 0 0 1 5
1524 2 6.6 -10 0 0 0 0 1 5
1525 2 6.8 -10 0 0 0 0 1 5
1558 2 6.6 -9.8 0 0 0 0 1 5
1559 2 6.8 -9.8 0 0 0 0 1 5
1592 2 6.6 -9.6 0 0 0 0 1 5
1593 2 6.8 -9.6 0 0 0 0 1 5
1526 2 7 -10 0 0 0 0 1 5
1527 2 7.2 -10 0 0 0 0 1 5
1560 2 7 -9.8 0 0 0 0 1 5
1561 2 7.2 -9.8 0 0 0 0 1 5
1594 2 7 -9.6 0 0 0 0 1 5
1595 2 7.2 -9.6 0 0 0 0 1 5
1603 2 2 -9.4 0 0 0 0 1 5
1637 2 2 -9.2 0 0 0 0 1 5
1604 2 2.2 -9.4 0 0 0 0 1 5
1605 2 2.4 -9.4 0 0 0 0 1 5
1638 2 2.2 -9.2 0 0 0 0 1 5
1639 2 2.4 -9.2 0 0 0 0 1 5
1606 2 2.6 -9.4 0 0 0 0 1 5
1607 2 2.8 -9.4 0 0 0 0 1 5
1640 2 2.6 -9.2 0 0 0 0 1 5
1641 2 2.8 -9.2 0 0 0 0 1 5
1608 2 3 -9.4 0 0 0 0 1 5
1642 2 3 -9.2 0 0 0 0 1 5
1609 2 3.2 -9.4 0 0 0 0 1 5
1643 2 3.2 -9.2 0 0 0 0 1 5
1610 2 3.4 -9.4 0 0 0 0 1 5
1644 2 3.4 -9.2 0 0 0 0 1 5
1611 2 3.6 -9.4 0 0 0 0 1 5
1645 2 3.6 -9.2 0 0 0 0 1 5
1612 2 3.8 -9.4 0 0 0 0 1 5
1646 2 3.8 -9.2 0 0 0 0 1 5
1613 2 4 -9.4 0 0 0 0 1 5
1614 2 4.2 -9.4 0 0 0 0 1 5
1647 2 4 -9.2 0 0 0 0 1 5
1648 2 4.2 -9.2 0 0 0 0 1 5
1615 2 4.4 -9.4 0 0 0 0 1 5
1616 2 4.6 -9.4 0 0 0 0 1 5
1649 2 4.4 -9.2 0 0 0 0 1 5
1650 2 4.6 -9.2 0 0 0 0 1 5
1617 2 4.8 -9.4 0 0 0 0 1 5
1618 2 5 -9.4 0 0 0 0 1 5
1651 2 4.8 -9.2 0 0 0 0 1 5
1652 2 5 -9.2 0 0 0 0 1 5
1619 2 5.2 -9.4 0 0 0 0 1 5
1620 2 5.4 -9.4 0 0 0 0 1 5
1653 2 5.2 -9.2 0 0 0 0 1 5
1654 2 5.4 -9.2 0 0 0 0 1 5
1621 2 5.6 -9.4 0 0 0 0 1 5
1655 2 5.6 -9.2 0 0 0 0 1 5
1622 2 5.8 -9.4 0 0 0 0 1 5
1656 2 5.8 -9.2 0 0 0 0 1 5
1623 2 6 -9.4 0 0 0 0 1 5
1657 2 6 -9.2 0 0 0 0 1 5
1624 2 6.2 -9.4 0 0 0 0 1 5
1625 2 6.4 -9.4 0 0 0 0 1 5
1658 2 6.2 -9.2 0 0 0 0 1 5
1659 2 6.4 -9.2 0 0 0 0 1 5
1626 2 6.6 -9.4 0 0 0 0 1 5
1627 2 6.8 -9.4 0 0 0 0 1 5
1660 2 6.6 -9.2 0 0 0 0 1 5
1661 2 6.8 -9.2 0 0 0 0 1 5
1628 2 7 -9.4 0 0 0 0 1 5
1629 2 7.2 -9.4 0 0 0 0 1 5
1662 2 7 -9.2 0 0 0 0 1 5
1663 2 7.2 -9.2 0 0 0 0 1 5
1671 2 2 -9 0 0 0 0 1 5
1705 2 2 -8.8 0 0 0 0 1 5
1672 2 2.2 -9 0 0 0 0 1 5
1673 2 2.4 -9 0 0 0 0 1 5
1706 2 2.2 -8.8 0 0 0 0 1 5
1707 2 2.4 -8.8 0 0 0 0 1 5
1674 2 2.6 -9 0 0 0 0 1 5
1675 2 2.8 -9 0 0 0 0 1 5
1708 2 2.6 -8.8 0 0 0 0 1 5
1709 2 2.8 -8.8 0 0 0 0 1 5
1676 2 3 -9 0 0 0 0 1 5
1710 2 3 -8.8 0 0 0 0 1 5
1677 2 3.2 -9 0 0 0 0 1 5
1711 2 3.2 -8.8 0 0 0 0 1 5
1678 2 3.4 -9 0 0 0 0 1 5
1712 2 3.4 -8.8 0 0 0 0 1 5
1679 2 3.6 -9 0 0 0 0 1 5
1713 2 3.6 -8.8 0 0 0 0 1 5
1680 2 3.8 -9 0 0 0 0 1 5
1714 2 3.8 -8.8 0 0 0 0 1 5
1681 2 4 -9 0 0 0 0 1 5
1682 2 4.2 -9 0 0 0 0 1 5
1715 2 4 -8.8 0 0 0 0 1 5
1716 2 4.2 -8.8 0 0 0 0 1 5
1683 2 4.4 -9 0 0 0 0 1 5
1684 2 4.6 -9 0 0 0 0 1 5
1717 2 4.4 -8.8 0 0 0 0 1 5
1718 2 4.6 -8.8 0 0 0 0 1 5
1685 2 4.8 -9 0 0 0 0 1 5
1686 2 5 -9 0 0 0 0 1 5
1719 2 4.8 -8.8 0 0 0 0 1 5
1720 2 5 -8.8 0 0 0 0 1 5
1687 2 5.2 -9 0 0 0 0 1 5
1688 2 5.4 -9 0 0 0 0 1 5
1721 2 5.2 -8.8 0 0 0 0 1 5
1722 2 5.4 -8.8 0 0 0 0 1 5
1689 2 5.6 -9 0 0 0 0 1 5
1723 2 5.6 -8.8 0 0 0 0 1 5
1690 2 5.8 -9 0 0 0 0 1 5
1724 2 5.8 -8.8 0 0 0 0 1 5
1691 2 6 -9 0 0 0 0 1 5
1725 2 6 -8.8 0 0 0 0 1 5
1692 2 6.2 -9 0 0 0 0 1 5
1693 2 6.4 -9 0 0 0 0 1 5
1726 2 6.2 -8.8 0 0 0 0 1 5
1727 2 6.4 -8.8 0 0 0 0 1 5
1694 2 6.6 -9 0 0 0 0 1 5
1695 2 6.8 -9 0 0 0 0 1 5
1728 2 6.6 -8.8 0 0 0 0 1 5
1729 2 6.8 -8.8 0 0 0 0 1 5
1696 2 7 -9 0 0 0 0 1 5
1697 2 7.2 -9 0 0 0 0 1 5
1730 2 7 -8.8 0 0 0 0 1 5
1731 2 7.2 -8.8 0 0 0 0 1 5
1739 2 2 -8.6 0 0 0 0 1 5
1773 2 2 -8.4 0 0 0 0 1 5
1740 2 2.2 -8.6 0 0 0 0 1 5
1741 2 2.4 -8.6 0 0 0 0 1 5
1774 2 2.2 -8.4 0 0 0 0 1 5
1775 2 2.4 -8.4 0 0 0 0 1 5
1742 2 2.6 -8.6 0 0 0 0 1 5
1743 2 2.8 -8.6 0 0 0 0 1 5
1776 2 2.6 -8.4 0 0 0 0 1 5
1777 2 2.8 -8.4 0 0 0 0 1 5
1744 2 3 -8.6 0 0 0 0 1 5
1778 2 3 -8.4 0 0 0 0 1 5
1745 2 3.2 -8.6 0 0 0 0 1 5
1779 2 3.2 -8.4 0 0 0 0 1 5
1746 2 3.4 -8.6 0 0 0 0 1 5
1780 2 3.4 -8.4 0 0 0 0 1 5
1747 2 3.6 -8.6 0 0 0 0 1 5
1781 2 3.6 -8.4 0 0 0 0 1 5
1748 2 3.8 -8.6 0 0 0 0 1 5
1782 2 3.8 -8.4 0 0 0 0 1 5
1749 2 4 -8.6 0 0 0 0 1 5
1750 2 4.2 -8.6 0 0 0 0 1 5
1783 2 4 -8.4 0 0 0 0 1 5
1784 2 4.2 -8.4 0 0 0 0 1 5
1751 2 4.4 -8.6 0 0 0 0 1 5
1752 2 4.6 -8.6 0 0 0 0 1 5
1785 2 4.4 -8.4 0 0 0 0 1 5
1786 2 4.6 -8.4 0 0 0 0 1 5
1753 2 4.8 -8.6 0 0 0 0 1 5
1754 2 5 -8.6 0 0 0 0 1 5
1787 2 4.8 -8.4 0 0 0 0 1 5
1788 2 5 -8.4 0 0 0 0 1 5
1755 2 5.2 -8.6 0 0 0 0 1 5
1756 2 5.4 -8.6 0 0 0 0 1 5
1789 2 5.2 -8.4 0 0 0 0 1 5
1790 2 5.4 -8.4 0 0 0 0 1 5
1757 2 5.6 -8.6 0 0 0 0 1 5
1791 2 5.6 -8.4 0 0 0 0 1 5
1758 2 5.8 -8.6 0 0 0 0 1 5
1792 2 5.8 -8.4 0 0 0 0 1 5
1759 2 6 -8.6 0 0 0 0 1 5
1793 2 6 -8.4 0 0 0 0 1 5
1760 2 6.2 -8.6 0 0 0 0 1 5
1761 2 6.4 -8.6 0 0 0 0 1 5
1794 2 6.2 -8.4 0 0 0 0 1 5
1795 2 6.4 -8.4 0 0 0 0 1 5
1762 2 6.6 -8.6 0 0 0 0 1 5
1763 2 6.8 -8.6 0 0 0 0 1 5
1796 2 6.6 -8.4 0 0 0 0 1 5
1797 2 6.8 -8.4 0 0 0 0 1 5
1764 2 7 -8.6 0 0 0 0 1 5
1765 2 7.2 -8.6 0 0 0 0 1 5
1798 2 7 -8.4 0 0 0 0 1 5
1799 2 7.2 -8.4 0 0 0 0 1 5
1807 2 2 -8.2 0 0 0 0 1 5
1841 2 2 -8 0 0 0 0 1 5
1808 2 2.2 -8.2 0 0 0 0 1 5
1809 2 2.4 -8.2 0 0 0 0 1 5
1842 2 2.2 -8 0 0 0 0 1 5
1843 2 2.4 -8 0 0 0 0 1 5
1810 2 2.6 -8.2 0 0 0 0 1 5
1811 2 2.8 -8.2 0 0 0 0 1 5
1844 2 2.6 -8 0 0 0 0 1 5
1845 2 2.8 -8 0 0 0 0 1 5
1812 2 3 -8.2 0 0 0 0 1 5
1846 2 3 -8 0 0 0 0 1 5
1813 2 3.2 -8.2 0 0 0 0 1 5
1847 2 3.2 -8 0 0 0 0 1 5
1814 2 3.4 -8.2 0 0 0 0 1 5
1848 2 3.4 -8 0 0 0 0 1 5
1815 2 3.6 -8.2 0 0 0 0 1 5
1849 2 3.6 -8 0 0 0 0 1 5
1816 2 3.8 -8.2 0 0 0 0 1 5
1850 2 3.8 -8 0 0 0 0 1 5
1817 2 4 -8.2 0 0 0 0 1 5
1818 2 4.2 -8.2 0 0 0 0 1 5
1851 2 4 -8 0 0 0 0 1 5
1852 2 4.2 -8 0 0 0 0 1 5
1819 2 4.4 -8.2 0 0 0 0 1 5
1820 2 4.6 -8.2 0 0 0 0 1 5
1853 2 4.4 -8 0 0 0 0 1 5
1854 2 4.6 -8 0 0 0 0 1 5
1821 2 4.8 -8.2 0 0 0 0 1 5
1822 2 5 -8.2 0 0 0 0 1 5
1855 2 4.8 -8 0 0 0 0 1 5
1856 2 5 -8 0 0 0 0 1 5
1823 2 5.2 -8.2 0 0 0 0 1 5
1824 2 5.4 -8.2 0 0 0 0 1 5
1857 2 5.2 -8 0 0 0 0 1 5
1858 2 5.4 -8 0 0 0 0 1 5
1825 2 5.6 -8.2 0 0 0 0 1 5
1859 2 5.6 -8 0 0 0 0 1 5
1826 2 5.8 -8.2 0 0 0 0 1 5
1860 2 5.8 -8 0 0 0 0 1 5
1827 2 6 -8.2 0 0 0 0 1 5
1861 2 6 -8 0 0 0 0 1 5
1828 2 6.2 -8.2 0 0 0 0 1 5
1829 2 6.4 -8.2 0 0 0 0 1 5
1862 2 6.2 -8 0 0 0 0 1 5
1863 2 6.4 -8 0 0 0 0 1 5
1830 2 6.6 -8.2 0 0 0 0 1 5
1831 2 6.8 -8.2 0 0 0 0 1 5
1864 2 6.6 -8 0 0 0 0 1 5
1865 2 6.8 -8 0 0 0 0 1 5
1832 2 7 -8.2 0 0 0 0 1 5
1833 2 7.2 -8.2 0 0 0 0 1 5
1866 2 7 -8 0 0 0 0 1 5
1867 2 7.2 -8 0 0 0 0 1 5
1875 2 2 -7.8 0 0 0 0 1 5
1909 2 2 -7.6 0 0 0 0 1 5
1943 2 2 -7.4 0 0 0 0 0.999191 5
1876 2 2.2 -7.8 0 0 0 0 1 5
1877 2 2.4 -7.8 0 0 0 0 1 5
1910 2 2.2 -7.6 0 0 0 0 1 5
1911 2 2.4 -7.6 0 0 0 0 1 5
1944 2 2.2 -7.4 0 0 0 0 1.00125 5
1945 2 2.4 -7.4 0 0 0 0 1.00011 5
1878 2 2.6 -7.8 0 0 0 0 1 5
1879 2 2.8 -7.8 0 0 0 0 1 5
1912 2 2.6 -7.6 0 0 0 0 1 5
1913 2 2.8 -7.6 0 0 0 0 1 5
1946 2 2.6 -7.4 0 0 0 0 0.999918 5
1947 2 2.8 -7.4 0 0 0 0 1.00101 5
1880 2 3 -7.8 0 0 0 0 1 5
1914 2 3 -7.6 0 0 0 0 1 5
1948 2 3 -7.4 0 0 0 0 1.00052 5
1881 2 3.2 -7.8 0 0 0 0 1 5
1915 2 3.2 -7.6 0 0 0 0 1 5
1949 2 3.2 -7.4 0 0 0 0 0.997794 5
1882 2 3.4 -7.8 0 0 0 0 1 5
1916 2 3.4 -7.6 0 0 0 0 1 5
1950 2 3.4 -7.4 0 0 0 0 1.00078 5
1883 2 3.6 -7.8 0 0 0 0 1 5
1917 2 3.6 -7.6 0 0 0 0 1 5
1951 2 3.6 -7.4 0 0 0 0 1.00167 5
1884 2 3.8 -7.8 0 0 0 0 1 5
1918 2 3.8 -7.6 0 0 0 0 1 5
1952 2 3.8 -7.4 0 0 0 0 1.01501 5
1885 2 4 -7.8 0 0 0 0 1 5
1886 2 4.2 -7.8 0 0 0 0 1 5
1919 2 4 -7.6 0 0 0 0 1 5
1920 2 4.2 -7.6 0 0 0 0 1 5
1953 2 4 -7.4 0 0 0 0 1.04062 5
1954 2 4.2 -7.4 0 0 0 0 1.04579 5
1887 2 4.4 -7.8 0 0 0 0 1 5
1888 2 4.6 -7.8 0 0 0 0 1 5
1921 2 4.4 -7.6 0 0 0 0 1 5
1922 2 4.6 -7.6 0 0 0 0 1 5
1955 2 4.4 -7.4 0 0 0 0 1.04158 5
1956 2 4.6 -7.4 0 0 0 0 1.03531 5
1889 2 4.8 -7.8 0 0 0 0 1 5
1890 2 5 -7.8 0 0 0 0 1 5
1923 2 4.8 -7.6 0 0 0 0 1 5
1924 2 5 -7.6 0 0 0 0 1 5
1957 2 4.8 -7.4 0 0 0 0 1.03454 5
1958 2 5 -7.4 0 0 0 0 1.03417 5
1891 2 5.2 -7.8 0 0 0 0 1 5
1892 2 5.4 -7.8 0 0 0 0 1 5
1925 2 5.2 -7.6 0 0 0 0 1 5
1926 2 5.4 -7.6 0 0 0 0 1 5
1959 2 5.2 -7.4 0 0 0 0 1.03399 5
1960 2 5.4 -7.4 0 0 0 0 1.03392 5
1893 2 5.6 -7.8 0 0 0 0 1 5
1927 2 5.6 -7.6 0 0 0 0 1 5
1961 2 5.6 -7.4 0 0 0 0 1.03391 5
1894 2 5.8 -7.8 0 0 0 0 1 5
1928 2 5.8 -7.6 0 0 0 0 1 5
1962 2 5.8 -7.4 0 0 0 0 1.03384 5
1895 2 6 -7.8 0 0 0 0 1 5
1929 2 6 -7.6 0 0 0 0 1 5
1963 2 6 -7.4 0 0 0 0 1.0335 5
1896 2 6.2 -7.8 0 0 0 0 1 5
1897 2 6.4 -7.8 0 0 0 0 1 5
1930 2 6.2 -7.6 0 0 0 0 1 5
1931 2 6.4 -7.6 0 0 0 0 1 5
1964 2 6.2 -7.4 0 0 0 0 1.03351 5
1965 2 6.4 -7.4 0 0 0 0 1.03373 5
1898 2 6.6 -7.8 0 0 0 0 1 5
1899 2 6.8 -7.8 0 0 0 0 1 5
1932 2 6.6 -7.6 0 0 0 0 1 5
1933 2 6.8 -7.6 0 0 0 0 1 5
1966 2 6.6 -7.4 0 0 0 0 1.03365 5
1967 2 6.8 -7.4 0 0 0 0 1.03363 5
1900 2 7 -7.8 0 0 0 0 1 5
1901 2 7.2 -7.8 0 0 0 0 1 5
1934 2 7 -7.6 0 0 0 0 1 5
1935 2 7.2 -7.6 0 0 0 0 1 5
1968 2 7 -7.4 0 0 0 0 1.03366 5
1969 2 7.2 -7.4 0 0 0 0 1.03365 5
1977 2 2 -7.2 0 0 0 0 1.00098 5
2011 2 2 -7 0 0 0 0 1.00129 5
1978 2 2.2 -7.2 0 0 0 0 1.00076 5
1979 2 2.4 -7.2 0 0 0 0 0.999007 5
2012 2 2.2 -7 0 0 0 0 1.00026 5
2013 2 2.4 -7 0 0 0 0 0.999361 5
1980 2 2.6 -7.2 0 0 0 0 0.999976 5
1981 2 2.8 -7.2 0 0 0 0 1.00112 5
2014 2 2.6 -7 0 0 0 0 0.999931 5
2015 2 2.8 -7 0 0 0 0 1.00052 5
1982 2 3 -7.2 0 0 0 0 0.999301 5
2016 2 3 -7 0 0 0 0 0.999624 5
1983 2 3.2 -7.2 0 0 0 0 0.999511 5
2017 2 3.2 -7 0 0 0 0 0.999741 5
1984 2 3.4 -7.2 0 0 0 0 1.00012 5
2018 2 3.4 -7 0 0 0 0 1.00022 5
1985 2 3.6 -7.2 0 0 0 0 1.00376 5
2019 2 3.6 -7 0 0 0 0 1.00516 5
1986 2 3.8 -7.2 0 0 0 0 1.02588 5
2020 2 3.8 -7 0 0 0 0 1.02399 5
1987 2 4 -7.2 0 0 0 0 1.03281 5
1988 2 4.2 -7.2 0 0 0 0 1.03641 5
2021 2 4 -7 0 0 0 0 1.03094 5
2022 2 4.2 -7 0 0 0 0 1.03525 5
1989 2 4.4 -7.2 0 0 0 0 1.04124 5
1990 2 4.6 -7.2 0 0 0 0 1.03657 5
2023 2 4.4 -7 0 0 0 0 1.04099 5
2024 2 4.6 -7 0 0 0 0 1.03782 5
1991 2 4.8 -7.2 0 0 0 0 1.03552 5
1992 2 5 -7.2 0 0 0 0 1.03539 5
2025 2 4.8 -7 0 0 0 0 1.03637 5
2026 2 5 -7 0 0 0 0 1.03623 5
1993 2 5.2 -7.2 0 0 0 0 1.0352 5
1994 2 5.4 -7.2 0 0 0 0 1.03493 5
2027 2 5.2 -7 0 0 0 0 1.03599 5
2028 2 5.4 -7 0 0 0 0 1.0356 5
1995 2 5.6 -7.2 0 0 0 0 1.03481 5
2029 2 5.6 -7 0 0 0 0 1.03549 5
1996 2 5.8 -7.2 0 0 0 0 1.03467 5
2030 2 5.8 -7 0 0 0 0 1.0353 5
1997 2 6 -7.2 0 0 0 0 1.03443 5
2031 2 6 -7 0 0 0 0 1.03504 5
1998 2 6.2 -7.2 0 0 0 0 1.03435 5
1999 2 6.4 -7.2 0 0 0 0 1.03426 5
2032 2 6.2 -7 0 0 0 0 1.03489 5
2033 2 6.4 -7 0 0 0 0 1.03475 5
2000 2 6.6 -7.2 0 0 0 0 1.03425 5
2001 2 6.8 -7.2 0 0 0 0 1.03426 5
2034 2 6.6 -7 0 0 0 0 1.03477 5
2035 2 6.8 -7 0 0 0 0 1.03479 5
2002 2 7 -7.2 0 0 0 0 1.03421 5
2003 2 7.2 -7.2 0 0 0 0 1.03416 5
2036 2 7 -7 0 0 0 0 1.0347 5
2037 2 7.2 -7 0 0 0 0 1.03464 5
13969 1 1.61881 -6.75534 0.02 0 -0.000632526 -0.00049676 1 2
13968 1 1.6458 -6.58047 0.02 0 0.000136366 9.91065e-05 1 2
13970 1 1.82252 -6.7545 0.02 0 -0.00258236 -0.00080448 1 2
13971 1 2.02134 -6.73795 0.02 0 -0.00331837 -0.000793571 1 2
13972 1 1.86221 -6.57021 0.02 0 9.17947e-06 0.000413146 1 2
13973 1 2.06837 -6.55898 0.02 0 8.36174e-05 0.000613503 1 2
13974 1 2.21891 -6.75641 0.02 0 -0.00325554 -0.00065235 1 2
13975 1 2.41568 -6.75355 0.02 0 -0.00290743 -0.000600396 1 2
13976 1 2.26466 -6.56659 0.02 0 0.000156112 0.000607294 1 2
13977 1 2.46011 -6.56457 0.02 0 0.000156784 0.00058319 1 2
13978 1 2.61439 -6.74256 0.02 0 -0.00262577 -0.000591474 1 2
13979 1 2.81287 -6.75576 0.02 0 -0.00293542 -0.000571597 1 2
13980 1 2.65461 -6.56 0.02 0 0.000140018 0.000539485 1 2
13981 1 2.84501 -6.56034 0.02 0 0.000125053 0.00047575 1 2
13982 1 3.01338 -6.76076 0.02 0 -0.00309401 -0.000508927 1 2
13983 1 3.21552 -6.74084 0.02 0 -0.00249612 -0.000509529 1 2
13984 1 3.03714 -6.57482 0.02 0 5.3146e-05 0.000449615 1 2
13985 1 3.24567 -6.55934 0.02 0 0.0001225 0.000476576 1 2
13640 1 3.61371 -6.73915 0.02 0 -0.00371788 5.82297e-05 1 2
13642 1 3.64751 -6.55076 0.02 0 -0.00106158 0.000639899 1 2
13986 1 3.41331 -6.75664 0.02 0 -0.00313522 -0.000393631 1 2
13987 1 3.44905 -6.56809 0.02 0 0.000104841 0.000553033 1 2
13641 1 3.81892 -6.76661 0.02 0 -0.00867598 0.000322223 1 2
13643 1 3.83519 -6.57535 0.02 0 -0.00431012 0.00077309 1 2
13646 1 3.99995 -6.56755 0.02 0 -0.00709393 0.00165383 1.02503 2
13644 1 3.99956 -6.75352 0.02 0 -0.0065193 0.000255419 1.03318 2
13645 1 3.99965 -6.78281 0.02 0 -0.00744832 0.000131408 1.0383 2
13647 1 4.05012 -6.5756 0.0123264 0.00256629 0.000198465 -0.000175788 1.0377 0
13648 1 4.21775 -6.6122 0.0110439 0.00367558 -0.000196641 -0.000341566 1.04523 0
13650 1 4.21466 -6.44257 0.0120473 0.0038644 6.28639e-05 3.70835e-05 1.04533 0
13649 1 4.13141 -6.80022 0.00644814 7.52249e-05 -0.00112964 -0.000152874 1.04987 0
13651 1 4.34646 -6.50623 0.0124524 0.00359462 6.14632e-05 1.34632e-05 1.04284 0
13652 1 4.42349 -6.6134 0.0106585 0.00211004 2.61265e-05 2.14432e-05 1.04019 0
13656 1 4.29907 -6.75369 0.00701252 0.000289531 -0.000317037 -0.000119793 1.04705 0
13653 1 4.54916 -6.53889 0.0115951 0.00242732 4.02425e-05 2.1585e-05 1.03785 0
13659 1 4.67299 -6.58087 0.00974282 0.00168736 3.48548e-05 1.33989e-05 1.03671 0
13274 1 4.46423 -6.75183 0.00659524 0.000154776 -2.75159e-05 -9.63064e-06 1.04058 0
13657 1 4.80578 -6.50645 0.0100125 0.00189052 3.00816e-05 9.22428e-06 1.03653 0
13276 1 4.60882 -6.76372 0.00543034 4.39078e-05 1.65185e-05 4.07482e-06 1.03848 0
13280 1 4.75772 -6.69508 0.00617384 0.000678396 2.05645e-05 5.84129e-06 1.03651 0
13271 1 4.92342 -6.60772 0.00717086 0.000997649 2.25996e-05 5.81413e-06 1.03609 0
13289 1 4.8628 -6.7923 0.00330927 -0.000338482 1.04938e-05 2.16603e-06 1.03792 0
13284 1 5.07603 -6.54852 0.00742783 0.00101049 2.3898e-05 5.56359e-06 1.03597 0
13281 1 5.21471 -6.57993 0.00619315 0.000682168 2.09906e-05 3.55317e-06 1.03562 0
12936 1 5.03542 -6.71267 0.00416844 0.000197164 1.32736e-05 3.05978e-06 1.03631 0
12949 1 5.15062 -6.80962 0.00239054 -0.000581093 8.15737e-06 9.49251e-07 1.03756 0
12940 1 5.37401 -6.54227 0.00620028 0.000662492 2.1717e-05 2.25683e-06 1.03535 0
12934 1 5.53958 -6.54463 0.00561113 0.000550581 2.10083e-05 5.3543e-07 1.03503 0
12953 1 5.29568 -6.70571 0.00359682 6.85032e-05 1.37073e-05 1.55923e-06 1.03586 0
12604 1 5.43638 -6.71044 0.00312573 -1.17049e-06 1.25866e-05 3.75e-07 1.0356 0
12941 1 5.63639 -6.63277 0.00397727 0.000280891 1.71757e-05 -7.83402e-07 1.03491 0
12617 1 5.55048 -6.80075 0.00183379 -0.000492861 8.86664e-06 -8.64009e-07 1.03662 0
12288 1 5.78615 -6.63588 0.0036053 0.000235942 1.63666e-05 -1.46395e-06 1.03473 0
12601 1 5.98843 -6.57373 0.00410496 0.00033421 1.76916e-05 -2.19571e-06 1.03443 0
11882 1 5.76899 -6.80184 0.00164612 -0.000490081 8.66868e-06 -1.48738e-06 1.03639 0
11544 1 5.94389 -6.72095 0.0022524 -4.04317e-05 1.17921e-05 -1.85658e-06 1.03498 0
12612 1 6.1361 -6.61517 0.00333641 0.000254079 1.48983e-05 -2.25904e-06 1.03434 0
11552 1 6.0906 -6.8007 0.00138393 -0.000491467 8.08927e-06 -1.55147e-06 1.03598 0
12292 1 6.30013 -6.58527 0.00348654 0.000283376 1.38209e-05 -2.34373e-06 1.03423 0
12295 1 6.45428 -6.58698 0.00328694 0.000280244 1.16879e-05 -1.97908e-06 1.03415 0
11164 1 6.26635 -6.74977 0.00171333 -0.00023384 8.78041e-06 -1.64208e-06 1.03529 0
11323 1 6.429 -6.75506 0.00152729 -0.000272021 7.25751e-06 -1.33251e-06 1.03529 0
11887 1 6.59766 -6.56709 0.00337599 0.000304468 9.89274e-06 -1.74769e-06 1.03406 0
11891 1 6.72266 -6.60985 0.00280721 0.000244374 7.34825e-06 -1.30075e-06 1.03404 0
10507 1 6.5894 -6.77622 0.00128951 -0.000353509 5.37698e-06 -7.96666e-07 1.03548 0
11547 1 6.86313 -6.60954 0.00272088 0.000239257 5.53183e-06 -9.43485e-07 1.034 0
10519 1 6.7771 -6.78956 0.00116642 -0.000394548 3.80594e-06 -2.47821e-07 1.03558 0
11172 1 7.01736 -6.61103 0.00262789 0.000219604 3.74189e-06 -6.14385e-07 1.03398 0
10189 1 6.97024 -6.77665 0.00120947 -0.000333628 2.63272e-06 1.70257e-08 1.03537 0
10850 1 7.16642 -6.58769 0.00281988 0.000239653 2.42449e-06 -3.82133e-07 1.03392 0
11556 1 7.31187 -6.59373 0.00271909 0.000227168 1.28494e-06 -2.06357e-07 1.03391 0
3109 1 7.15519 -6.76689 0.00123164 -0.000300091 1.58917e-06 2.38443e-07 1.03521 0
3113 1 7.33093 -6.77492 0.00114252 -0.000349662 8.07648e-07 4.58494e-07 1.03533 0
13988 1 1.66308 -6.2288 0.02 0 8.6198e-07 1.03832e-06 1 2
13989 1 1.67257 -6.4079 0.02 0 2.92063e-05 2.85334e-05 1 2
13990 1 1.87494 -6.38721 0.02 0 2.0718e-05 7.69891e-05 1 2
13991 1 1.88498 -6.20378 0.02 0 5.07395e-07 3.75863e-06 1 2
13992 1 2.08227 -6.3754 0.02 0 5.71765e-05 0.000137965 1 2
13993 1 2.09538 -6.18987 0.02 0 3.07822e-06 9.87727e-06 1 2
13994 1 2.2865 -6.37705 0.02 0 0.000100419 0.000170693 1 2
13995 1 2.29877 -6.184 0.02 0 5.84303e-06 1.38311e-05 1 2
13996 1 2.48512 -6.37392 0.02 0 9.57219e-05 0.000157781 1 2
13997 1 2.50466 -6.18589 0.02 0 6.16968e-06 1.45614e-05 1 2
13998 1 2.68541 -6.37283 0.02 0 8.91795e-05 0.000159211 1 2
13999 1 2.88522 -6.36822 0.02 0 8.47279e-05 0.000150446 1 2
14000 1 2.71092 -6.18342 0.02 0 5.58584e-06 1.42754e-05 1 2
14001 1 2.91568 -6.17861 0.02 0 5.29841e-06 1.34779e-05 1 2
14002 1 3.08212 -6.39271 0.02 0 0.000104143 0.000188439 1 2
14003 1 3.27914 -6.36863 0.02 0 8.08349e-05 0.000150237 1 2
14004 1 3.1119 -6.19761 0.02 0 7.40912e-06 1.86464e-05 1 2
14005 1 3.30504 -6.16742 0.02 0 3.81767e-06 1.03658e-05 1 2
13660 1 3.6674 -6.35963 0.02 0 -0.00124178 0.000193814 1 2
13661 1 3.6987 -6.17071 0.02 0 -0.00164436 3.19164e-05 1 2
14006 1 3.47099 -6.37707 0.02 0 4.76879e-05 0.000154033 1 2
14007 1 3.49964 -6.1793 0.02 0 -6.98285e-05 1.16312e-05 1 2
13662 1 3.86276 -6.37801 0.02 0 -0.00460958 0.000356169 1 2
13663 1 3.89165 -6.17475 0.02 0 -0.00524645 0.000340723 1 2
13664 1 3.99963 -6.38429 0.02 0 -0.00400196 0.000604473 1.02922 2
13666 1 3.99984 -6.17126 0.02 0 -0.00673867 0.000976843 1.02844 2
13654 1 4.4631 -6.3903 0.0136981 0.0036837 4.52525e-05 2.46671e-05 1.03917 0
13665 1 3.99998 -6.4318 0.02 0 -0.00610621 0.00115191 1.02994 2
13667 1 4.24293 -6.16755 0.0120452 0.00364879 0.000149474 -1.27839e-05 1.04283 0
13668 1 4.06431 -6.28026 0.0111918 0.00161647 0.000127597 -0.000151209 1.03766 0
13670 1 4.15627 -6.11512 0.0115971 0.00251954 0.000264411 -7.55305e-06 1.04173 0
13669 1 4.30098 -6.31833 0.0126727 0.0041151 5.8666e-05 1.875e-05 1.04315 0
13671 1 4.50231 -6.06936 0.0142095 0.00446973 3.13446e-05 1.05429e-05 1.03705 0
13672 1 4.54142 -6.25032 0.0140764 0.00411429 3.16429e-05 1.48916e-05 1.03748 0
13673 1 4.39769 -6.19275 0.01397 0.00439264 5.02494e-05 1.11296e-05 1.03948 0
13655 1 4.64501 -6.3928 0.0127439 0.00311261 3.4247e-05 1.3502e-05 1.03709 0
13658 1 4.68539 -6.20471 0.0135924 0.00387786 3.32724e-05 1.30775e-05 1.03682 0
13675 1 4.65557 -6.04327 0.013994 0.00435104 3.33043e-05 1.10504e-05 1.03651 0
13676 1 4.81276 -6.10322 0.0132806 0.00383511 3.49597e-05 1.15931e-05 1.03674 0
13272 1 4.90766 -6.2522 0.0120588 0.00291542 3.4078e-05 1.0748e-05 1.03681 0
13677 1 4.78827 -6.33571 0.0121943 0.00290936 3.43083e-05 1.16233e-05 1.03682 0
13270 1 4.95393 -6.43129 0.00998784 0.00188943 3.01057e-05 8.43001e-06 1.03653 0
13296 1 4.97293 -6.10318 0.012563 0.00332536 3.35386e-05 1.01236e-05 1.0367 0
13275 1 5.05255 -6.29176 0.0108987 0.0022659 3.14017e-05 8.48264e-06 1.03659 0
13273 1 5.19024 -6.22603 0.0107831 0.00218065 2.98606e-05 6.70126e-06 1.0363 0
13291 1 5.11626 -6.07899 0.0120989 0.0029815 3.0995e-05 8.08662e-06 1.03643 0
13279 1 5.16316 -6.40687 0.00905555 0.00148245 2.77948e-05 5.89972e-06 1.03616 0
13277 1 5.31876 -6.38861 0.00853123 0.00126566 2.64574e-05 3.73044e-06 1.0358 0
13278 1 5.33599 -6.20355 0.010328 0.00194007 2.81351e-05 4.35049e-06 1.03595 0
13298 1 5.4136 -6.03562 0.0112471 0.00239931 2.65323e-05 3.70301e-06 1.03577 0
13283 1 5.54138 -6.09731 0.0103535 0.00194078 2.58187e-05 2.01971e-06 1.03558 0
13282 1 5.46483 -6.26832 0.00920029 0.00146741 2.66424e-05 2.3173e-06 1.03565 0
13285 1 5.51197 -6.40675 0.00752259 0.000957176 2.46968e-05 1.22141e-06 1.03534 0
13287 1 5.62622 -6.22055 0.00903016 0.00140384 2.56552e-05 5.66225e-07 1.03542 0
13288 1 5.70166 -6.33108 0.0076885 0.00100338 2.46017e-05 -4.78359e-07 1.03517 0
12609 1 5.88465 -6.47646 0.00555288 0.000558238 2.11652e-05 -1.89689e-06 1.03467 0
13286 1 5.78166 -6.12747 0.00929426 0.00149238 2.43046e-05 -2.85107e-07 1.03524 0
13309 1 5.92998 -6.12948 0.00882826 0.00131581 2.29244e-05 -1.01235e-06 1.03506 0
12944 1 5.72479 -6.47375 0.00601396 0.000639077 2.23302e-05 -9.95838e-07 1.03487 0
13290 1 5.85735 -6.30171 0.00749602 0.000947475 2.35668e-05 -1.41247e-06 1.03502 0
12938 1 6.11828 -6.14873 0.00816894 0.00109671 2.06405e-05 -1.4949e-06 1.03486 0
12937 1 6.01187 -6.28864 0.00719174 0.000865715 2.19572e-05 -1.91925e-06 1.03486 0
12945 1 6.07335 -6.42307 0.00569732 0.000582574 2.00788e-05 -2.3025e-06 1.03456 0
12942 1 6.20685 -6.26103 0.00698244 0.000810426 1.922e-05 -1.92384e-06 1.03469 0
12600 1 6.22049 -6.44089 0.00521467 0.000518267 1.77907e-05 -2.40078e-06 1.0344 0
12947 1 6.43158 -6.10131 0.00789327 0.000960237 1.49747e-05 -9.96472e-07 1.03461 0
12950 1 6.35424 -6.26219 0.00667626 0.000735275 1.6609e-05 -1.78502e-06 1.03458 0
12605 1 6.3856 -6.42026 0.00514223 0.000505952 1.52433e-05 -2.15245e-06 1.03432 0
12948 1 6.52282 -6.24152 0.00657597 0.000691738 1.33167e-05 -1.3296e-06 1.03448 0
12132 1 6.54921 -6.40913 0.00501877 0.000484706 1.23429e-05 -1.74124e-06 1.03423 0
12952 1 6.68864 -6.15516 0.00707163 0.000730606 9.84487e-06 -6.02177e-07 1.03445 0
12608 1 6.69387 -6.30726 0.00577434 0.00055336 9.89537e-06 -1.03729e-06 1.03432 0
12603 1 6.84742 -6.17435 0.00673794 0.000632861 6.78673e-06 -2.76247e-07 1.03438 0
12616 1 6.7568 -6.44294 0.00447559 0.000420645 8.39863e-06 -1.18216e-06 1.03409 0
12611 1 6.98719 -6.21197 0.00630674 0.000538862 4.4503e-06 -9.54047e-08 1.03431 0
12135 1 6.89279 -6.36331 0.00508511 0.000449158 6.265e-06 -6.39715e-07 1.03416 0
12613 1 7.1763 -6.14397 0.00673616 0.000521501 1.38061e-06 2.72554e-07 1.03429 0
11894 1 7.00601 -6.45831 0.00414856 0.00036909 4.4797e-06 -5.81369e-07 1.03399 0
12136 1 7.11562 -6.29441 0.00552983 0.000437147 2.79383e-06 -5.29167e-08 1.0342 0
12291 1 7.18654 -6.41577 0.00444107 0.000359545 2.21968e-06 -1.73099e-07 1.034 0
12615 1 7.31516 -6.17952 0.00638946 0.000443685 -5.61013e-08 3.02302e-07 1.03425 0
13136 1 5.48999 -0.00255638 0.0130094 0.000145843 -1.19651e-06 1.47093e-06 1.03449 0
12296 1 7.3315 -6.4087 0.0044481 0.000338071 7.7396e-07 -4.79802e-08 1.03399 0
14008 1 1.63864 -5.85696 0.02 0 0 0 1 2
14009 1 1.65859 -6.0486 0.02 0 4.01641e-09 6.62951e-09 1 2
14010 1 1.86415 -6.01867 0.02 0 1.29787e-09 6.4223e-09 1 2
14011 1 1.82834 -5.82533 0.02 0 8.74773e-14 2.56127e-13 1 2
14012 1 2.02406 -5.81429 0.02 0 3.69893e-11 1.43184e-10 1 2
14013 1 2.07217 -6.00318 0.02 0 2.07179e-08 5.93369e-08 1 2
14014 1 2.27975 -5.99131 0.02 0 3.19478e-08 9.68827e-08 1 2
14015 1 2.22801 -5.80594 0.02 0 4.95775e-11 1.94157e-10 1 2
14016 1 2.44787 -5.81645 0.02 0 6.9257e-11 2.33675e-10 1 2
14017 1 2.4866 -5.99936 0.02 0 3.5047e-08 1.22558e-07 1 2
14018 1 2.69084 -5.99235 0.02 0 2.41512e-08 1.01617e-07 1 2
14020 1 2.66418 -5.80089 0.02 0 2.87925e-11 9.17209e-11 1 2
14021 1 2.87718 -5.80157 0.02 0 2.7422e-11 7.96189e-11 1 2
14019 1 2.89577 -5.99012 0.02 0 2.46977e-08 1.06787e-07 1 2
14022 1 3.0983 -5.99593 0.02 0 2.59532e-08 1.15786e-07 1 2
14023 1 3.29456 -5.9702 0.02 0 1.34487e-08 5.125e-08 1 2
14024 1 3.0823 -5.79422 0.02 0 1.59301e-11 4.69104e-11 1 2
14025 1 3.28701 -5.77703 0.02 0 4.41233e-12 1.72561e-11 1 2
13680 1 3.6898 -5.9796 0.02 0 -0.00170977 -7.73244e-05 1 2
13681 1 3.67906 -5.78431 0.02 0 -0.00176191 3.70685e-06 1 2
14026 1 3.49167 -5.97734 0.02 0 -6.81537e-05 1.24759e-06 1 2
14027 1 3.48326 -5.77065 0.02 0 -4.81164e-05 9.97328e-07 1 2
13682 1 3.88972 -5.97299 0.02 0 -0.00596378 -0.000262297 1 2
13683 1 3.87604 -5.77559 0.02 0 -0.00674374 3.11315e-05 1 2
13684 1 4.02218 -5.98671 0.0119761 0.00115386 0.000276711 3.47565e-05 1.03281 0
13685 1 4.03047 -5.81193 0.00981662 0.000877646 -1.30368e-06 3.9224e-05 1.03421 0
13674 1 4.33843 -6.02448 0.0129994 0.00421964 8.02652e-05 1.46707e-05 1.03956 0
13686 1 4.22123 -5.75093 0.010361 0.00247771 -5.60297e-05 9.47458e-05 1.03987 0
13687 1 4.0002 -6.00048 0.0182592 5.44401e-05 -0.0069633 0.00021776 1.0294 0
13690 1 4.02583 -5.75105 0.00991115 0.000933022 -7.60803e-05 6.90541e-05 1.03379 0
13688 1 4.21165 -5.90896 0.0106271 0.00310998 0.000110388 4.4752e-05 1.0406 0
13689 1 4.38277 -5.87759 0.0132591 0.00397239 4.12505e-05 1.12192e-05 1.0375 0
13691 1 4.33035 -5.65995 0.0123946 0.00293015 -4.75021e-05 3.94458e-05 1.0385 0
13692 1 4.54988 -5.90675 0.0140418 0.00437227 3.2158e-05 9.83919e-06 1.03614 0
13694 1 4.46349 -5.74776 0.0137509 0.00382875 2.38236e-05 1.14554e-05 1.03622 0
13679 1 4.89663 -5.9433 0.0133697 0.00400024 3.46142e-05 9.80705e-06 1.03658 0
13678 1 4.74516 -5.91528 0.0138329 0.00432003 3.5014e-05 9.86908e-06 1.03638 0
13693 1 4.64964 -5.775 0.0140376 0.00426714 3.45457e-05 8.80879e-06 1.03593 0
13695 1 4.57359 -5.63443 0.0141076 0.00391814 3.36834e-05 8.58997e-06 1.03575 0
13696 1 4.81031 -5.75732 0.0138617 0.00427709 3.5652e-05 8.94247e-06 1.03626 0
13697 1 4.96841 -5.7765 0.0135358 0.00408763 3.34033e-05 8.67254e-06 1.03637 0
13699 1 4.89831 -5.61101 0.0139048 0.00423339 3.45338e-05 9.52617e-06 1.03618 0
13292 1 5.26429 -6.03891 0.0117674 0.00273268 2.84036e-05 5.90409e-06 1.03607 0
13294 1 5.05563 -5.92169 0.0129689 0.00364084 3.17035e-05 8.63536e-06 1.03641 0
13293 1 5.2126 -5.88419 0.0126776 0.00333295 2.79119e-05 6.6846e-06 1.03606 0
13295 1 5.13166 -5.74255 0.0133212 0.00381309 2.84134e-05 7.67864e-06 1.03611 0
13317 1 5.05897 -5.60305 0.0137147 0.00409301 2.9303e-05 8.83649e-06 1.03611 0
13299 1 5.37151 -5.86372 0.0123159 0.00301804 2.532e-05 4.50742e-06 1.03575 0
13314 1 5.29158 -5.70809 0.0131157 0.00353277 2.45794e-05 5.82307e-06 1.0358 0
13302 1 5.67577 -6.01475 0.0104836 0.00198858 2.43638e-05 9.07456e-07 1.03537 0
13297 1 5.5278 -5.89596 0.0116845 0.00260349 2.42064e-05 2.61302e-06 1.03553 0
13319 1 5.45761 -5.71296 0.0127267 0.0031848 2.27245e-05 3.75294e-06 1.03556 0
13300 1 5.61041 -5.69957 0.0124147 0.00291565 2.17145e-05 2.31961e-06 1.03537 0
13301 1 5.67486 -5.84157 0.0115502 0.0024747 2.28296e-05 1.32864e-06 1.03532 0
13303 1 5.79681 -5.71967 0.0118676 0.00254192 2.11988e-05 9.84932e-07 1.03517 0
12935 1 6.06191 -6.01498 0.00936003 0.00146871 2.09274e-05 -8.44595e-07 1.03493 0
13305 1 5.81191 -5.91478 0.0107276 0.00205942 2.27017e-05 2.73005e-07 1.03518 0
12954 1 5.94501 -5.93046 0.0102595 0.00182156 2.17363e-05 -3.16077e-07 1.03504 0
13304 1 5.95193 -5.7471 0.0113531 0.00223113 2.04607e-05 3.03075e-07 1.03501 0
13306 1 6.0929 -5.81741 0.0106165 0.00188016 1.94801e-05 -2.26806e-07 1.03487 0
13308 1 6.10083 -5.63616 0.0116231 0.00221105 1.83345e-05 4.80247e-07 1.03484 0
13311 1 6.20256 -5.93423 0.00960766 0.00150189 1.85572e-05 -6.66286e-07 1.03478 0
13310 1 6.23965 -5.72932 0.0108383 0.00185271 1.69439e-05 2.39949e-09 1.03473 0
12939 1 6.28764 -6.06645 0.00844835 0.00113721 1.76491e-05 -1.04411e-06 1.03472 0
12956 1 6.36552 -5.6343 0.0111563 0.00183823 1.43162e-05 3.24467e-07 1.03462 0
12958 1 6.34296 -5.86726 0.00977856 0.0014844 1.58212e-05 -3.60629e-07 1.03466 0
12946 1 6.59173 -6.04415 0.00807895 0.000949014 1.15494e-05 -4.9105e-07 1.03451 0
12957 1 6.47094 -5.75794 0.0102625 0.00152609 1.2852e-05 6.1776e-09 1.03456 0
12943 1 6.48945 -5.92777 0.00910075 0.00122934 1.32198e-05 -3.81762e-07 1.03457 0
12961 1 6.62347 -5.73302 0.0102002 0.00139383 9.56371e-06 1.79196e-07 1.03447 0
12962 1 6.67524 -5.88517 0.00912787 0.00113509 9.19343e-06 -3.6318e-09 1.03445 0
12965 1 6.78053 -5.70454 0.0101965 0.00126597 6.15526e-06 2.72045e-07 1.03439 0
12966 1 6.86001 -5.83373 0.0092772 0.00104683 5.11971e-06 2.02697e-07 1.03436 0
12974 1 6.78575 -6.00588 0.00811887 0.000877547 7.40244e-06 -2.27427e-08 1.03442 0
12951 1 6.94212 -5.98356 0.00813075 0.00080586 4.32507e-06 2.50745e-07 1.03436 0
12969 1 7.01913 -5.80799 0.00932135 0.00094439 2.04868e-06 2.91407e-07 1.03431 0
12606 1 7.06971 -6.04138 0.00759558 0.000664952 2.42537e-06 3.03333e-07 1.03433 0
12602 1 7.16441 -5.88391 0.00870434 0.000766315 1.58864e-07 3.65979e-07 1.03428 0
12971 1 7.18746 -5.71403 0.00984912 0.000884075 -1.02003e-06 2.23684e-07 1.03426 0
12607 1 7.2741 -5.99161 0.00786501 0.000604503 -6.80688e-07 4.37479e-07 1.03427 0