ITEM: TIMESTEP
88000
ITEM: NUMBER OF ATOMS
10630
ITEM: BOX BOUNDS ff ff pp
0.0000000000000000e+00 2.2000000000000000e+01
-1.0000000000000000e+01 1.0000000000000000e+01
-2.0000000000000000e-02 2.0000000000000000e-02
ITEM: ATOMS id type x y vx vy fx fy c_den c_phase
1501 2 2 -10 0 0 0 0 1 4
1551 2 2 -9.8 0 0 0 0 1 4
1601 2 2 -9.6 0 0 0 0 1 4
1502 2 2.2 -10 0 0 0 0 1 4
1503 2 2.4 -10 0 0 0 0 1 4
1552 2 2.2 -9.8 0 0 0 0 1 4
1553 2 2.4 -9.8 0 0 0 0 1 4
1602 2 2.2 -9.6 0 0 0 0 1 4
1603 2 2.4 -9.6 0 0 0 0 1 4
1504 2 2.6 -10 0 0 0 0 1 4
1505 2 2.8 -10 0 0 0 0 1 4
1554 2 2.6 -9.8 0 0 0 0 1 4
1555 2 2.8 -9.8 0 0 0 0 1 4
1604 2 2.6 -9.6 0 0 0 0 1 4
1605 2 2.8 -9.6 0 0 0 0 1 4
1506 2 3 -10 0 0 0 0 1 4
1507 2 3.2 -10 0 0 0 0 1 4
1556 2 3 -9.8 0 0 0 0 1 4
1557 2 3.2 -9.8 0 0 0 0 1 4
1606 2 3 -9.6 0 0 0 0 1 4
1607 2 3.2 -9.6 0 0 0 0 1 4
1508 2 3.4 -10 0 0 0 0 1 4
1509 2 3.6 -10 0 0 0 0 1 4
1558 2 3.4 -9.8 0 0 0 0 1 4
1559 2 3.6 -9.8 0 0 0 0 1 4
1608 2 3.4 -9.6 0 0 0 0 1 4
1609 2 3.6 -9.6 0 0 0 0 1 4
1510 2 3.8 -10 0 0 0 0 1 4
1560 2 3.8 -9.8 0 0 0 0 1 4
1610 2 3.8 -9.6 0 0 0 0 1 4
1511 2 4 -10 0 0 0 0 1 4
1561 2 4 -9.8 0 0 0 0 1 4
1611 2 4 -9.6 0 0 0 0 1 4
1512 2 4.2 -10 0 0 0 0 1 4
1562 2 4.2 -9.8 0 0 0 0 1 4
1612 2 4.2 -9.6 0 0 0 0 1 4
1513 2 4.4 -10 0 0 0 0 1 4
1514 2 4.6 -10 0 0 0 0 1 4
1563 2 4.4 -9.8 0 0 0 0 1 4
1564 2 4.6 -9.8 0 0 0 0 1 4
1613 2 4.4 -9.6 0 0 0 0 1 4
1614 2 4.6 -9.6 0 0 0 0 1 4
1515 2 4.8 -10 0 0 0 0 1 4
1516 2 5 -10 0 0 0 0 1 4
1565 2 4.8 -9.8 0 0 0 0 1 4
1566 2 5 -9.8 0 0 0 0 1 4
1615 2 4.8 -9.6 0 0 0 0 1 4
1616 2 5 -9.6 0 0 0 0 1 4
1517 2 5.2 -10 0 0 0 0 1 4
1518 2 5.4 -10 0 0 0 0 1 4
1567 2 5.2 -9.8 0 0 0 0 1 4
1568 2 5.4 -9.8 0 0 0 0 1 4
1617 2 5.2 -9.6 0 0 0 0 1 4
1618 2 5.4 -9.6 0 0 0 0 1 4
1519 2 5.6 -10 0 0 0 0 1 4
1520 2 5.8 -10 0 0 0 0 1 4
1569 2 5.6 -9.8 0 0 0 0 1 4
1570 2 5.8 -9.8 0 0 0 0 1 4
1619 2 5.6 -9.6 0 0 0 0 1 4
1620 2 5.8 -9.6 0 0 0 0 1 4
1521 2 6 -10 0 0 0 0 1 4
1522 2 6.2 -10 0 0 0 0 1 4
1571 2 6 -9.8 0 0 0 0 1 4
1572 2 6.2 -9.8 0 0 0 0 1 4
1621 2 6 -9.6 0 0 0 0 1 4
1622 2 6.2 -9.6 0 0 0 0 1 4
1523 2 6.4 -10 0 0 0 0 1 4
1524 2 6.6 -10 0 0 0 0 1 4
1573 2 6.4 -9.8 0 0 0 0 1 4
1574 2 6.6 -9.8 0 0 0 0 1 4
1623 2 6.4 -9.6 0 0 0 0 1 4
1624 2 6.6 -9.6 0 0 0 0 1 4
1525 2 6.8 -10 0 0 0 0 1 4
1526 2 7 -10 0 0 0 0 1 4
1575 2 6.8 -9.8 0 0 0 0 1 4
1576 2 7 -9.8 0 0 0 0 1 4
1625 2 6.8 -9.6 0 0 0 0 1 4
1626 2 7 -9.6 0 0 0 0 1 4
1527 2 7.2 -10 0 0 0 0 1 4
1577 2 7.2 -9.8 0 0 0 0 1 4
1627 2 7.2 -9.6 0 0 0 0 1 4
1528 2 7.4 -10 0 0 0 0 1 4
1529 2 7.6 -10 0 0 0 0 1 4
1578 2 7.4 -9.8 0 0 0 0 1 4
1579 2 7.6 -9.8 0 0 0 0 1 4
1628 2 7.4 -9.6 0 0 0 0 1 4
1629 2 7.6 -9.6 0 0 0 0 1 4
1530 2 7.8 -10 0 0 0 0 1 4
1531 2 8 -10 0 0 0 0 1 4
1580 2 7.8 -9.8 0 0 0 0 1 4
1581 2 8 -9.8 0 0 0 0 1 4
1630 2 7.8 -9.6 0 0 0 0 1 4
1631 2 8 -9.6 0 0 0 0 1 4
1532 2 8.2 -10 0 0 0 0 1 4
1533 2 8.4 -10 0 0 0 0 1 4
1582 2 8.2 -9.8 0 0 0 0 1 4
1583 2 8.4 -9.8 0 0 0 0 1 4
1632 2 8.2 -9.6 0 0 0 0 1 4
1633 2 8.4 -9.6 0 0 0 0 1 4
1534 2 8.6 -10 0 0 0 0 1 4
1535 2 8.8 -10 0 0 0 0 1 4
1584 2 8.6 -9.8 0 0 0 0 1 4
1585 2 8.8 -9.8 0 0 0 0 1 4
1634 2 8.6 -9.6 0 0 0 0 1 4
1635 2 8.8 -9.6 0 0 0 0 1 4
1536 2 9 -10 0 0 0 0 1 4
1537 2 9.2 -10 0 0 0 0 1 4
1586 2 9 -9.8 0 0 0 0 1 4
1587 2 9.2 -9.8 0 0 0 0 1 4
1636 2 9 -9.6 0 0 0 0 1 4
1637 2 9.2 -9.6 0 0 0 0 1 4
1538 2 9.4 -10 0 0 0 0 1 4
1539 2 9.6 -10 0 0 0 0 1 4
1588 2 9.4 -9.8 0 0 0 0 1 4
1589 2 9.6 -9.8 0 0 0 0 1 4
1638 2 9.4 -9.6 0 0 0 0 1 4
1639 2 9.6 -9.6 0 0 0 0 1 4
1540 2 9.8 -10 0 0 0 0 1 4
1590 2 9.8 -9.8 0 0 0 0 1 4
1640 2 9.8 -9.6 0 0 0 0 1 4
1541 2 10 -10 0 0 0 0 1 4
1591 2 10 -9.8 0 0 0 0 1 4
1641 2 10 -9.6 0 0 0 0 1 4
1542 2 10.2 -10 0 0 0 0 1 4
1592 2 10.2 -9.8 0 0 0 0 1 4
1642 2 10.2 -9.6 0 0 0 0 1 4
1543 2 10.4 -10 0 0 0 0 1 4
1593 2 10.4 -9.8 0 0 0 0 1 4
1643 2 10.4 -9.6 0 0 0 0 1 4
1544 2 10.6 -10 0 0 0 0 1 4
1594 2 10.6 -9.8 0 0 0 0 1 4
1644 2 10.6 -9.6 0 0 0 0 1 4
1545 2 10.8 -10 0 0 0 0 1 4
1595 2 10.8 -9.8 0 0 0 0 1 4
1645 2 10.8 -9.6 0 0 0 0 1 4
1651 2 2 -9.4 0 0 0 0 1 4
1701 2 2 -9.2 0 0 0 0 1 4
1652 2 2.2 -9.4 0 0 0 0 1 4
1653 2 2.4 -9.4 0 0 0 0 1 4
1702 2 2.2 -9.2 0 0 0 0 1 4
1703 2 2.4 -9.2 0 0 0 0 1 4
1654 2 2.6 -9.4 0 0 0 0 1 4
1655 2 2.8 -9.4 0 0 0 0 1 4
1704 2 2.6 -9.2 0 0 0 0 1 4
1705 2 2.8 -9.2 0 0 0 0 1 4
1656 2 3 -9.4 0 0 0 0 1 4
1657 2 3.2 -9.4 0 0 0 0 1 4
1706 2 3 -9.2 0 0 0 0 1 4
1707 2 3.2 -9.2 0 0 0 0 1 4
1658 2 3.4 -9.4 0 0 0 0 1 4
1659 2 3.6 -9.4 0 0 0 0 1 4
1708 2 3.4 -9.2 0 0 0 0 1 4
1709 2 3.6 -9.2 0 0 0 0 1 4
1660 2 3.8 -9.4 0 0 0 0 1 4
1710 2 3.8 -9.2 0 0 0 0 1 4
1661 2 4 -9.4 0 0 0 0 1 4
1711 2 4 -9.2 0 0 0 0 1 4
1662 2 4.2 -9.4 0 0 0 0 1 4
1712 2 4.2 -9.2 0 0 0 0 1 4
1663 2 4.4 -9.4 0 0 0 0 1 4
1664 2 4.6 -9.4 0 0 0 0 1 4
1713 2 4.4 -9.2 0 0 0 0 1 4
1714 2 4.6 -9.2 0 0 0 0 1 4
1665 2 4.8 -9.4 0 0 0 0 1 4
1666 2 5 -9.4 0 0 0 0 1 4
1715 2 4.8 -9.2 0 0 0 0 1 4
1716 2 5 -9.2 0 0 0 0 1 4
1667 2 5.2 -9.4 0 0 0 0 1 4
1668 2 5.4 -9.4 0 0 0 0 1 4
1717 2 5.2 -9.2 0 0 0 0 1 4
1718 2 5.4 -9.2 0 0 0 0 1 4
1669 2 5.6 -9.4 0 0 0 0 1 4
1670 2 5.8 -9.4 0 0 0 0 1 4
1719 2 5.6 -9.2 0 0 0 0 1 4
1720 2 5.8 -9.2 0 0 0 0 1 4
1671 2 6 -9.4 0 0 0 0 1 4
1672 2 6.2 -9.4 0 0 0 0 1 4
1721 2 6 -9.2 0 0 0 0 1 4
1722 2 6.2 -9.2 0 0 0 0 1 4
1673 2 6.4 -9.4 0 0 0 0 1 4
1674 2 6.6 -9.4 0 0 0 0 1 4
1723 2 6.4 -9.2 0 0 0 0 1 4
1724 2 6.6 -9.2 0 0 0 0 1 4
1675 2 6.8 -9.4 0 0 0 0 1 4
1676 2 7 -9.4 0 0 0 0 1 4
1725 2 6.8 -9.2 0 0 0 0 1 4
1726 2 7 -9.2 0 0 0 0 1 4
1677 2 7.2 -9.4 0 0 0 0 1 4
1727 2 7.2 -9.2 0 0 0 0 1 4
1678 2 7.4 -9.4 0 0 0 0 1 4
1679 2 7.6 -9.4 0 0 0 0 1 4
1728 2 7.4 -9.2 0 0 0 0 1 4
1729 2 7.6 -9.2 0 0 0 0 1 4
1680 2 7.8 -9.4 0 0 0 0 1 4
1681 2 8 -9.4 0 0 0 0 1 4
1730 2 7.8 -9.2 0 0 0 0 1 4
1731 2 8 -9.2 0 0 0 0 1 4
1682 2 8.2 -9.4 0 0 0 0 1 4
1683 2 8.4 -9.4 0 0 0 0 1 4
1732 2 8.2 -9.2 0 0 0 0 1 4
1733 2 8.4 -9.2 0 0 0 0 1 4
1684 2 8.6 -9.4 0 0 0 0 1 4
1685 2 8.8 -9.4 0 0 0 0 1 4
1734 2 8.6 -9.2 0 0 0 0 1 4
1735 2 8.8 -9.2 0 0 0 0 1 4
1686 2 9 -9.4 0 0 0 0 1 4
1687 2 9.2 -9.4 0 0 0 0 1 4
1736 2 9 -9.2 0 0 0 0 1 4
1737 2 9.2 -9.2 0 0 0 0 1 4
1688 2 9.4 -9.4 0 0 0 0 1 4
1689 2 9.6 -9.4 0 0 0 0 1 4
1738 2 9.4 -9.2 0 0 0 0 1 4
1739 2 9.6 -9.2 0 0 0 0 1 4
1690 2 9.8 -9.4 0 0 0 0 1 4
1740 2 9.8 -9.2 0 0 0 0 1 4
1691 2 10 -9.4 0 0 0 0 1 4
1741 2 10 -9.2 0 0 0 0 1 4
1692 2 10.2 -9.4 0 0 0 0 1 4
1742 2 10.2 -9.2 0 0 0 0 1 4
1693 2 10.4 -9.4 0 0 0 0 1 4
1743 2 10.4 -9.2 0 0 0 0 1 4
1694 2 10.6 -9.4 0 0 0 0 1 4
1744 2 10.6 -9.2 0 0 0 0 1 4
1695 2 10.8 -9.4 0 0 0 0 1 4
1745 2 10.8 -9.2 0 0 0 0 1 4
1751 2 2 -9 0 0 0 0 1 4
1801 2 2 -8.8 0 0 0 0 1 4
1752 2 2.2 -9 0 0 0 0 1 4
1753 2 2.4 -9 0 0 0 0 1 4
1802 2 2.2 -8.8 0 0 0 0 1 4
1803 2 2.4 -8.8 0 0 0 0 1 4
1754 2 2.6 -9 0 0 0 0 1 4
1755 2 2.8 -9 0 0 0 0 1 4
1804 2 2.6 -8.8 0 0 0 0 1 4
1805 2 2.8 -8.8 0 0 0 0 1 4
1756 2 3 -9 0 0 0 0 1 4
1757 2 3.2 -9 0 0 0 0 1 4
1806 2 3 -8.8 0 0 0 0 1 4
1807 2 3.2 -8.8 0 0 0 0 1 4
1758 2 3.4 -9 0 0 0 0 1 4
1759 2 3.6 -9 0 0 0 0 1 4
1808 2 3.4 -8.8 0 0 0 0 1 4
1809 2 3.6 -8.8 0 0 0 0 1 4
1760 2 3.8 -9 0 0 0 0 1 4
1810 2 3.8 -8.8 0 0 0 0 1 4
1761 2 4 -9 0 0 0 0 1 4
1811 2 4 -8.8 0 0 0 0 1 4
1762 2 4.2 -9 0 0 0 0 1 4
1812 2 4.2 -8.8 0 0 0 0 1 4
1763 2 4.4 -9 0 0 0 0 1 4
1764 2 4.6 -9 0 0 0 0 1 4
1813 2 4.4 -8.8 0 0 0 0 1 4
1814 2 4.6 -8.8 0 0 0 0 1 4
1765 2 4.8 -9 0 0 0 0 1 4
1766 2 5 -9 0 0 0 0 1 4
1815 2 4.8 -8.8 0 0 0 0 1 4
1816 2 5 -8.8 0 0 0 0 1 4
1767 2 5.2 -9 0 0 0 0 1 4
1768 2 5.4 -9 0 0 0 0 1 4
1817 2 5.2 -8.8 0 0 0 0 1 4
1818 2 5.4 -8.8 0 0 0 0 1 4
1769 2 5.6 -9 0 0 0 0 1 4
1770 2 5.8 -9 0 0 0 0 1 4
1819 2 5.6 -8.8 0 0 0 0 1 4
1820 2 5.8 -8.8 0 0 0 0 1 4
1771 2 6 -9 0 0 0 0 1 4
1772 2 6.2 -9 0 0 0 0 1 4
1821 2 6 -8.8 0 0 0 0 1 4
1822 2 6.2 -8.8 0 0 0 0 1 4
1773 2 6.4 -9 0 0 0 0 1 4
1774 2 6.6 -9 0 0 0 0 1 4
1823 2 6.4 -8.8 0 0 0 0 1 4
1824 2 6.6 -8.8 0 0 0 0 1 4
1775 2 6.8 -9 0 0 0 0 1 4
1776 2 7 -9 0 0 0 0 1 4
1825 2 6.8 -8.8 0 0 0 0 1 4
1826 2 7 -8.8 0 0 0 0 1 4
1777 2 7.2 -9 0 0 0 0 1 4
1827 2 7.2 -8.8 0 0 0 0 1 4
1778 2 7.4 -9 0 0 0 0 1 4
1779 2 7.6 -9 0 0 0 0 1 4
1828 2 7.4 -8.8 0 0 0 0 1 4
1829 2 7.6 -8.8 0 0 0 0 1 4
1780 2 7.8 -9 0 0 0 0 1 4
1781 2 8 -9 0 0 0 0 1 4
1830 2 7.8 -8.8 0 0 0 0 1 4
1831 2 8 -8.8 0 0 0 0 1 4
1782 2 8.2 -9 0 0 0 0 1 4
1783 2 8.4 -9 0 0 0 0 1 4
1832 2 8.2 -8.8 0 0 0 0 1 4
1833 2 8.4 -8.8 0 0 0 0 1 4
1784 2 8.6 -9 0 0 0 0 1 4
1785 2 8.8 -9 0 0 0 0 1 4
1834 2 8.6 -8.8 0 0 0 0 1 4
1835 2 8.8 -8.8 0 0 0 0 1 4
1786 2 9 -9 0 0 0 0 1 4
1787 2 9.2 -9 0 0 0 0 1 4
1836 2 9 -8.8 0 0 0 0 1 4
1837 2 9.2 -8.8 0 0 0 0 1 4
1788 2 9.4 -9 0 0 0 0 1 4
1789 2 9.6 -9 0 0 0 0 1 4
1838 2 9.4 -8.8 0 0 0 0 1 4
1839 2 9.6 -8.8 0 0 0 0 1 4
1790 2 9.8 -9 0 0 0 0 1 4
1840 2 9.8 -8.8 0 0 0 0 1 4
1791 2 10 -9 0 0 0 0 1 4
1841 2 10 -8.8 0 0 0 0 1 4
1792 2 10.2 -9 0 0 0 0 1 4
1842 2 10.2 -8.8 0 0 0 0 1 4
1793 2 10.4 -9 0 0 0 0 1 4
1843 2 10.4 -8.8 0 0 0 0 1 4
1794 2 10.6 -9 0 0 0 0 1 4
1844 2 10.6 -8.8 0 0 0 0 1 4
1795 2 10.8 -9 0 0 0 0 1 4
1845 2 10.8 -8.8 0 0 0 0 1 4
1851 2 2 -8.6 0 0 0 0 1 4
1901 2 2 -8.4 0 0 0 0 1 4
1852 2 2.2 -8.6 0 0 0 0 1 4
1853 2 2.4 -8.6 0 0 0 0 1 4
1902 2 2.2 -8.4 0 0 0 0 1 4
1903 2 2.4 -8.4 0 0 0 0 1 4
1854 2 2.6 -8.6 0 0 0 0 1 4
1855 2 2.8 -8.6 0 0 0 0 1 4
1904 2 2.6 -8.4 0 0 0 0 1 4
1905 2 2.8 -8.4 0 0 0 0 1 4
1856 2 3 -8.6 0 0 0 0 1 4
1857 2 3.2 -8.6 0 0 0 0 1 4
1906 2 3 -8.4 0 0 0 0 1 4
1907 2 3.2 -8.4 0 0 0 0 1 4
1858 2 3.4 -8.6 0 0 0 0 1 4
1859 2 3.6 -8.6 0 0 0 0 1 4
1908 2 3.4 -8.4 0 0 0 0 1 4
1909 2 3.6 -8.4 0 0 0 0 1 4
1860 2 3.8 -8.6 0 0 0 0 1 4
1910 2 3.8 -8.4 0 0 0 0 1 4
1861 2 4 -8.6 0 0 0 0 1 4
1911 2 4 -8.4 0 0 0 0 1 4
1862 2 4.2 -8.6 0 0 0 0 1 4
1912 2 4.2 -8.4 0 0 0 0 1 4
1863 2 4.4 -8.6 0 0 0 0 1 4
1864 2 4.6 -8.6 0 0 0 0 1 4
1913 2 4.4 -8.4 0 0 0 0 1 4
1914 2 4.6 -8.4 0 0 0 0 1 4
1865 2 4.8 -8.6 0 0 0 0 1 4
1866 2 5 -8.6 0 0 0 0 1 4
1915 2 4.8 -8.4 0 0 0 0 1 4
1916 2 5 -8.4 0 0 0 0 1 4
1867 2 5.2 -8.6 0 0 0 0 1 4
1868 2 5.4 -8.6 0 0 0 0 1 4
1917 2 5.2 -8.4 0 0 0 0 1 4
1918 2 5.4 -8.4 0 0 0 0 1 4
1869 2 5.6 -8.6 0 0 0 0 1 4
1870 2 5.8 -8.6 0 0 0 0 1 4
1919 2 5.6 -8.4 0 0 0 0 1 4
1920 2 5.8 -8.4 0 0 0 0 1 4
1871 2 6 -8.6 0 0 0 0 1 4
1872 2 6.2 -8.6 0 0 0 0 1 4
1921 2 6 -8.4 0 0 0 0 1 4
1922 2 6.2 -8.4 0 0 0 0 1 4
1873 2 6.4 -8.6 0 0 0 0 1 4
1874 2 6.6 -8.6 0 0 0 0 1 4
1923 2 6.4 -8.4 0 0 0 0 1 4
1924 2 6.6 -8.4 0 0 0 0 1 4
1875 2 6.8 -8.6 0 0 0 0 1 4
1876 2 7 -8.6 0 0 0 0 1 4
1925 2 6.8 -8.4 0 0 0 0 1 4
1926 2 7 -8.4 0 0 0 0 1 4
1877 2 7.2 -8.6 0 0 0 0 1 4
1927 2 7.2 -8.4 0 0 0 0 1 4
1878 2 7.4 -8.6 0 0 0 0 1 4
1879 2 7.6 -8.6 0 0 0 0 1 4
1928 2 7.4 -8.4 0 0 0 0 1 4
1929 2 7.6 -8.4 0 0 0 0 1 4
1880 2 7.8 -8.6 0 0 0 0 1 4
1881 2 8 -8.6 0 0 0 0 1 4
1930 2 7.8 -8.4 0 0 0 0 1 4
1931 2 8 -8.4 0 0 0 0 1 4
1882 2 8.2 -8.6 0 0 0 0 1 4
1883 2 8.4 -8.6 0 0 0 0 1 4
1932 2 8.2 -8.4 0 0 0 0 1 4
1933 2 8.4 -8.4 0 0 0 0 1 4
1884 2 8.6 -8.6 0 0 0 0 1 4
1885 2 8.8 -8.6 0 0 0 0 1 4
1934 2 8.6 -8.4 0 0 0 0 1 4
1935 2 8.8 -8.4 0 0 0 0 1 4
1886 2 9 -8.6 0 0 0 0 1 4
1887 2 9.2 -8.6 0 0 0 0 1 4
1936 2 9 -8.4 0 0 0 0 1 4
1937 2 9.2 -8.4 0 0 0 0 1 4
1888 2 9.4 -8.6 0 0 0 0 1 4
1889 2 9.6 -8.6 0 0 0 0 1 4
1938 2 9.4 -8.4 0 0 0 0 1 4
1939 2 9.6 -8.4 0 0 0 0 1 4
1890 2 9.8 -8.6 0 0 0 0 1 4
1940 2 9.8 -8.4 0 0 0 0 1 4
1891 2 10 -8.6 0 0 0 0 1 4
1941 2 10 -8.4 0 0 0 0 1 4
1892 2 10.2 -8.6 0 0 0 0 1 4
1942 2 10.2 -8.4 0 0 0 0 1 4
1893 2 10.4 -8.6 0 0 0 0 1 4
1943 2 10.4 -8.4 0 0 0 0 1 4
1894 2 10.6 -8.6 0 0 0 0 1 4
1944 2 10.6 -8.4 0 0 0 0 1 4
1895 2 10.8 -8.6 0 0 0 0 1 4
1945 2 10.8 -8.4 0 0 0 0 1 4
1951 2 2 -8.2 0 0 0 0 1 4
2001 2 2 -8 0 0 0 0 1 4
1952 2 2.2 -8.2 0 0 0 0 1 4
1953 2 2.4 -8.2 0 0 0 0 1 4
2002 2 2.2 -8 0 0 0 0 1 4
2003 2 2.4 -8 0 0 0 0 1 4
1954 2 2.6 -8.2 0 0 0 0 1 4
1955 2 2.8 -8.2 0 0 0 0 1 4
2004 2 2.6 -8 0 0 0 0 1 4
2005 2 2.8 -8 0 0 0 0 1 4
1956 2 3 -8.2 0 0 0 0 1 4
1957 2 3.2 -8.2 0 0 0 0 1 4
2006 2 3 -8 0 0 0 0 1 4
2007 2 3.2 -8 0 0 0 0 1 4
1958 2 3.4 -8.2 0 0 0 0 1 4
1959 2 3.6 -8.2 0 0 0 0 1 4
2008 2 3.4 -8 0 0 0 0 1 4
2009 2 3.6 -8 0 0 0 0 1 4
1960 2 3.8 -8.2 0 0 0 0 1 4
2010 2 3.8 -8 0 0 0 0 1 4
1961 2 4 -8.2 0 0 0 0 1 4
2011 2 4 -8 0 0 0 0 1 4
1962 2 4.2 -8.2 0 0 0 0 1 4
2012 2 4.2 -8 0 0 0 0 1 4
1963 2 4.4 -8.2 0 0 0 0 1 4
1964 2 4.6 -8.2 0 0 0 0 1 4
2013 2 4.4 -8 0 0 0 0 1 4
2014 2 4.6 -8 0 0 0 0 1 4
1965 2 4.8 -8.2 0 0 0 0 1 4
1966 2 5 -8.2 0 0 0 0 1 4
2015 2 4.8 -8 0 0 0 0 1 4
2016 2 5 -8 0 0 0 0 1 4
1967 2 5.2 -8.2 0 0 0 0 1 4
1968 2 5.4 -8.2 0 0 0 0 1 4
2017 2 5.2 -8 0 0 0 0 1 4
2018 2 5.4 -8 0 0 0 0 1 4
1969 2 5.6 -8.2 0 0 0 0 1 4
1970 2 5.8 -8.2 0 0 0 0 1 4
2019 2 5.6 -8 0 0 0 0 1 4
2020 2 5.8 -8 0 0 0 0 1 4
1971 2 6 -8.2 0 0 0 0 1 4
1972 2 6.2 -8.2 0 0 0 0 1 4
2021 2 6 -8 0 0 0 0 1 4
2022 2 6.2 -8 0 0 0 0 1 4
1973 2 6.4 -8.2 0 0 0 0 1 4
1974 2 6.6 -8.2 0 0 0 0 1 4
2023 2 6.4 -8 0 0 0 0 1 4
2024 2 6.6 -8 0 0 0 0 1 4
1975 2 6.8 -8.2 0 0 0 0 1 4
1976 2 7 -8.2 0 0 0 0 1 4
2025 2 6.8 -8 0 0 0 0 1 4
2026 2 7 -8 0 0 0 0 1 4
1977 2 7.2 -8.2 0 0 0 0 1 4
2027 2 7.2 -8 0 0 0 0 1 4
1978 2 7.4 -8.2 0 0 0 0 1 4
1979 2 7.6 -8.2 0 0 0 0 1 4
2028 2 7.4 -8 0 0 0 0 1 4
2029 2 7.6 -8 0 0 0 0 1 4
1980 2 7.8 -8.2 0 0 0 0 1 4
1981 2 8 -8.2 0 0 0 0 1 4
2030 2 7.8 -8 0 0 0 0 1 4
2031 2 8 -8 0 0 0 0 1 4
1982 2 8.2 -8.2 0 0 0 0 1 4
1983 2 8.4 -8.2 0 0 0 0 1 4
2032 2 8.2 -8 0 0 0 0 1 4
2033 2 8.4 -8 0 0 0 0 1 4
1984 2 8.6 -8.2 0 0 0 0 1 4
1985 2 8.8 -8.2 0 0 0 0 1 4
2034 2 8.6 -8 0 0 0 0 1 4
2035 2 8.8 -8 0 0 0 0 1 4
1986 2 9 -8.2 0 0 0 0 1 4
1987 2 9.2 -8.2 0 0 0 0 1 4
2036 2 9 -8 0 0 0 0 1 4
2037 2 9.2 -8 0 0 0 0 1 4
1988 2 9.4 -8.2 0 0 0 0 1 4
1989 2 9.6 -8.2 0 0 0 0 1 4
2038 2 9.4 -8 0 0 0 0 1 4
2039 2 9.6 -8 0 0 0 0 1 4
1990 2 9.8 -8.2 0 0 0 0 1 4
2040 2 9.8 -8 0 0 0 0 1 4
1991 2 10 -8.2 0 0 0 0 1 4
2041 2 10 -8 0 0 0 0 1 4
1992 2 10.2 -8.2 0 0 0 0 1 4
2042 2 10.2 -8 0 0 0 0 1 4
1993 2 10.4 -8.2 0 0 0 0 1 4
2043 2 10.4 -8 0 0 0 0 1 4
1994 2 10.6 -8.2 0 0 0 0 1 4
2044 2 10.6 -8 0 0 0 0 1 4
1995 2 10.8 -8.2 0 0 0 0 1 4
2045 2 10.8 -8 0 0 0 0 1 4
2051 2 2 -7.8 0 0 0 0 1 4
2101 2 2 -7.6 0 0 0 0 1 4
2151 2 2 -7.4 0 0 0 0 1.00015 4
2052 2 2.2 -7.8 0 0 0 0 1 4
2053 2 2.4 -7.8 0 0 0 0 1 4
2102 2 2.2 -7.6 0 0 0 0 1 4
2103 2 2.4 -7.6 0 0 0 0 1 4
2152 2 2.2 -7.4 0 0 0 0 0.999961 4
2153 2 2.4 -7.4 0 0 0 0 0.99997 4
2054 2 2.6 -7.8 0 0 0 0 1 4
2055 2 2.8 -7.8 0 0 0 0 1 4
2104 2 2.6 -7.6 0 0 0 0 1 4
2105 2 2.8 -7.6 0 0 0 0 1 4
2154 2 2.6 -7.4 0 0 0 0 1.00002 4
2155 2 2.8 -7.4 0 0 0 0 0.99999 4
2056 2 3 -7.8 0 0 0 0 1 4
2057 2 3.2 -7.8 0 0 0 0 1 4
2106 2 3 -7.6 0 0 0 0 1 4
2107 2 3.2 -7.6 0 0 0 0 1 4
2156 2 3 -7.4 0 0 0 0 0.999995 4
2157 2 3.2 -7.4 0 0 0 0 1 4
2058 2 3.4 -7.8 0 0 0 0 1 4
2059 2 3.6 -7.8 0 0 0 0 1 4
2108 2 3.4 -7.6 0 0 0 0 1 4
2109 2 3.6 -7.6 0 0 0 0 1 4
2158 2 3.4 -7.4 0 0 0 0 1 4
2159 2 3.6 -7.4 0 0 0 0 1.00002 4
2060 2 3.8 -7.8 0 0 0 0 1 4
2110 2 3.8 -7.6 0 0 0 0 1 4
2160 2 3.8 -7.4 0 0 0 0 1.00005 4
2061 2 4 -7.8 0 0 0 0 1 4
2111 2 4 -7.6 0 0 0 0 1 4
2161 2 4 -7.4 0 0 0 0 1.01167 4
2062 2 4.2 -7.8 0 0 0 0 1 4
2112 2 4.2 -7.6 0 0 0 0 1 4
2162 2 4.2 -7.4 0 0 0 0 1.01143 4
2063 2 4.4 -7.8 0 0 0 0 1 4
2064 2 4.6 -7.8 0 0 0 0 1 4
2113 2 4.4 -7.6 0 0 0 0 1 4
2114 2 4.6 -7.6 0 0 0 0 1 4
2163 2 4.4 -7.4 0 0 0 0 1.00521 4
2164 2 4.6 -7.4 0 0 0 0 1.00399 4
2065 2 4.8 -7.8 0 0 0 0 1 4
2066 2 5 -7.8 0 0 0 0 1 4
2115 2 4.8 -7.6 0 0 0 0 1 4
2116 2 5 -7.6 0 0 0 0 1 4
2165 2 4.8 -7.4 0 0 0 0 1.00284 4
2166 2 5 -7.4 0 0 0 0 1.00253 4
2067 2 5.2 -7.8 0 0 0 0 1 4
2068 2 5.4 -7.8 0 0 0 0 1 4
2117 2 5.2 -7.6 0 0 0 0 1 4
2118 2 5.4 -7.6 0 0 0 0 1 4
2167 2 5.2 -7.4 0 0 0 0 1.00237 4
2168 2 5.4 -7.4 0 0 0 0 1.0021 4
2069 2 5.6 -7.8 0 0 0 0 1 4
2070 2 5.8 -7.8 0 0 0 0 1 4
2119 2 5.6 -7.6 0 0 0 0 1 4
2120 2 5.8 -7.6 0 0 0 0 1 4
2169 2 5.6 -7.4 0 0 0 0 1.00214 4
2170 2 5.8 -7.4 0 0 0 0 1.00211 4
2071 2 6 -7.8 0 0 0 0 1 4
2072 2 6.2 -7.8 0 0 0 0 1 4
2121 2 6 -7.6 0 0 0 0 1 4
2122 2 6.2 -7.6 0 0 0 0 1 4
2171 2 6 -7.4 0 0 0 0 1.00195 4
2172 2 6.2 -7.4 0 0 0 0 1.00169 4
2073 2 6.4 -7.8 0 0 0 0 1 4
2074 2 6.6 -7.8 0 0 0 0 1 4
2123 2 6.4 -7.6 0 0 0 0 1 4
2124 2 6.6 -7.6 0 0 0 0 1 4
2173 2 6.4 -7.4 0 0 0 0 1.00178 4
2174 2 6.6 -7.4 0 0 0 0 1.00159 4
2075 2 6.8 -7.8 0 0 0 0 1 4
2076 2 7 -7.8 0 0 0 0 1 4
2125 2 6.8 -7.6 0 0 0 0 1 4
2126 2 7 -7.6 0 0 0 0 1 4
2175 2 6.8 -7.4 0 0 0 0 1.0016 4
2176 2 7 -7.4 0 0 0 0 1.00153 4
2077 2 7.2 -7.8 0 0 0 0 1 4
2127 2 7.2 -7.6 0 0 0 0 1 4
2177 2 7.2 -7.4 0 0 0 0 1.00149 4
2078 2 7.4 -7.8 0 0 0 0 1 4
2079 2 7.6 -7.8 0 0 0 0 1 4
2128 2 7.4 -7.6 0 0 0 0 1 4
2129 2 7.6 -7.6 0 0 0 0 1 4
2178 2 7.4 -7.4 0 0 0 0 1.00153 4
2179 2 7.6 -7.4 0 0 0 0 1.00149 4
2080 2 7.8 -7.8 0 0 0 0 1 4
2081 2 8 -7.8 0 0 0 0 1 4
2130 2 7.8 -7.6 0 0 0 0 1 4
2131 2 8 -7.6 0 0 0 0 1 4
2180 2 7.8 -7.4 0 0 0 0 1.00139 4
2181 2 8 -7.4 0 0 0 0 1.00149 4
2082 2 8.2 -7.8 0 0 0 0 1 4
2083 2 8.4 -7.8 0 0 0 0 1 4
2132 2 8.2 -7.6 0 0 0 0 1 4
2133 2 8.4 -7.6 0 0 0 0 1 4
2182 2 8.2 -7.4 0 0 0 0 1.00141 4
2183 2 8.4 -7.4 0 0 0 0 1.00138 4
2084 2 8.6 -7.8 0 0 0 0 1 4
2085 2 8.8 -7.8 0 0 0 0 1 4
2134 2 8.6 -7.6 0 0 0 0 1 4
2135 2 8.8 -7.6 0 0 0 0 1 4
2184 2 8.6 -7.4 0 0 0 0 1.00136 4
2185 2 8.8 -7.4 0 0 0 0 1.00138 4
2086 2 9 -7.8 0 0 0 0 1 4
2087 2 9.2 -7.8 0 0 0 0 1 4
2136 2 9 -7.6 0 0 0 0 1 4
2137 2 9.2 -7.6 0 0 0 0 1 4
2186 2 9 -7.4 0 0 0 0 1.00128 4
2187 2 9.2 -7.4 0 0 0 0 1.00138 4
2088 2 9.4 -7.8 0 0 0 0 1 4
2089 2 9.6 -7.8 0 0 0 0 1 4
2138 2 9.4 -7.6 0 0 0 0 1 4
2139 2 9.6 -7.6 0 0 0 0 1 4
2188 2 9.4 -7.4 0 0 0 0 1.0013 4
2189 2 9.6 -7.4 0 0 0 0 1.00118 4
2090 2 9.8 -7.8 0 0 0 0 1 4
2140 2 9.8 -7.6 0 0 0 0 1 4
2190 2 9.8 -7.4 0 0 0 0 1.00123 4
2091 2 10 -7.8 0 0 0 0 1 4
2141 2 10 -7.6 0 0 0 0 1 4
2191 2 10 -7.4 0 0 0 0 1.00126 4
2092 2 10.2 -7.8 0 0 0 0 1 4
2142 2 10.2 -7.6 0 0 0 0 1 4
2192 2 10.2 -7.4 0 0 0 0 1.00129 4
2093 2 10.4 -7.8 0 0 0 0 1 4
2143 2 10.4 -7.6 0 0 0 0 1 4
2193 2 10.4 -7.4 0 0 0 0 1.00113 4
2094 2 10.6 -7.8 0 0 0 0 1 4
2144 2 10.6 -7.6 0 0 0 0 1 4
2194 2 10.6 -7.4 0 0 0 0 1.00115 4
2095 2 10.8 -7.8 0 0 0 0 1 4
2145 2 10.8 -7.6 0 0 0 0 1 4
2195 2 10.8 -7.4 0 0 0 0 1.0011 4
2201 2 2 -7.2 0 0 0 0 1.00013 4
2251 2 2 -7 0 0 0 0 1.00011 4
2202 2 2.2 -7.2 0 0 0 0 0.999974 4
2203 2 2.4 -7.2 0 0 0 0 0.999978 4
2252 2 2.2 -7 0 0 0 0 0.999985 4
2253 2 2.4 -7 0 0 0 0 0.999981 4
2204 2 2.6 -7.2 0 0 0 0 1 4
2205 2 2.8 -7.2 0 0 0 0 0.999995 4
2254 2 2.6 -7 0 0 0 0 1 4
2255 2 2.8 -7 0 0 0 0 0.999996 4
2206 2 3 -7.2 0 0 0 0 0.999997 4
2207 2 3.2 -7.2 0 0 0 0 1 4
2256 2 3 -7 0 0 0 0 0.999997 4
2257 2 3.2 -7 0 0 0 0 1 4
2208 2 3.4 -7.2 0 0 0 0 1.00001 4
2209 2 3.6 -7.2 0 0 0 0 1.00002 4
2258 2 3.4 -7 0 0 0 0 1.00001 4
2259 2 3.6 -7 0 0 0 0 1.00006 4
2210 2 3.8 -7.2 0 0 0 0 1.00142 4
2260 2 3.8 -7 0 0 0 0 1.00164 4
2211 2 4 -7.2 0 0 0 0 1.00715 4
2261 2 4 -7 0 0 0 0 1.00655 4
2212 2 4.2 -7.2 0 0 0 0 1.00951 4
2262 2 4.2 -7 0 0 0 0 1.00915 4
2213 2 4.4 -7.2 0 0 0 0 1.00638 4
2214 2 4.6 -7.2 0 0 0 0 1.00421 4
2263 2 4.4 -7 0 0 0 0 1.00687 4
2264 2 4.6 -7 0 0 0 0 1.00454 4
2215 2 4.8 -7.2 0 0 0 0 1.00314 4
2216 2 5 -7.2 0 0 0 0 1.00283 4
2265 2 4.8 -7 0 0 0 0 1.00348 4
2266 2 5 -7 0 0 0 0 1.00313 4
2217 2 5.2 -7.2 0 0 0 0 1.00263 4
2218 2 5.4 -7.2 0 0 0 0 1.00242 4
2267 2 5.2 -7 0 0 0 0 1.0029 4
2268 2 5.4 -7 0 0 0 0 1.00265 4
2219 2 5.6 -7.2 0 0 0 0 1.00229 4
2220 2 5.8 -7.2 0 0 0 0 1.00224 4
2269 2 5.6 -7 0 0 0 0 1.00247 4
2270 2 5.8 -7 0 0 0 0 1.00238 4
2221 2 6 -7.2 0 0 0 0 1.00206 4
2222 2 6.2 -7.2 0 0 0 0 1.00184 4
2271 2 6 -7 0 0 0 0 1.00218 4
2272 2 6.2 -7 0 0 0 0 1.00199 4
2223 2 6.4 -7.2 0 0 0 0 1.00187 4
2224 2 6.6 -7.2 0 0 0 0 1.00176 4
2273 2 6.4 -7 0 0 0 0 1.00196 4
2274 2 6.6 -7 0 0 0 0 1.00185 4
2225 2 6.8 -7.2 0 0 0 0 1.00168 4
2226 2 7 -7.2 0 0 0 0 1.00163 4
2275 2 6.8 -7 0 0 0 0 1.00178 4
2276 2 7 -7 0 0 0 0 1.00173 4
2227 2 7.2 -7.2 0 0 0 0 1.00159 4
2277 2 7.2 -7 0 0 0 0 1.00168 4
2228 2 7.4 -7.2 0 0 0 0 1.00159 4
2229 2 7.6 -7.2 0 0 0 0 1.00151 4
2278 2 7.4 -7 0 0 0 0 1.00166 4
2279 2 7.6 -7 0 0 0 0 1.00159 4
2230 2 7.8 -7.2 0 0 0 0 1.00147 4
2231 2 8 -7.2 0 0 0 0 1.00154 4
2280 2 7.8 -7 0 0 0 0 1.00155 4
2281 2 8 -7 0 0 0 0 1.00159 4
2232 2 8.2 -7.2 0 0 0 0 1.00149 4
2233 2 8.4 -7.2 0 0 0 0 1.00142 4
2282 2 8.2 -7 0 0 0 0 1.00153 4
2283 2 8.4 -7 0 0 0 0 1.00148 4
2234 2 8.6 -7.2 0 0 0 0 1.00142 4
2235 2 8.8 -7.2 0 0 0 0 1.00138 4
2284 2 8.6 -7 0 0 0 0 1.00147 4
2285 2 8.8 -7 0 0 0 0 1.00143 4
2236 2 9 -7.2 0 0 0 0 1.00133 4
2237 2 9.2 -7.2 0 0 0 0 1.0014 4
2286 2 9 -7 0 0 0 0 1.00139 4
2287 2 9.2 -7 0 0 0 0 1.00142 4
2238 2 9.4 -7.2 0 0 0 0 1.00135 4
2239 2 9.6 -7.2 0 0 0 0 1.00126 4
2288 2 9.4 -7 0 0 0 0 1.00138 4
2289 2 9.6 -7 0 0 0 0 1.00132 4
2240 2 9.8 -7.2 0 0 0 0 1.00127 4
2290 2 9.8 -7 0 0 0 0 1.00132 4
2241 2 10 -7.2 0 0 0 0 1.00129 4
2291 2 10 -7 0 0 0 0 1.00132 4
2242 2 10.2 -7.2 0 0 0 0 1.00124 4
2292 2 10.2 -7 0 0 0 0 1.00127 4
2243 2 10.4 -7.2 0 0 0 0 1.00117 4
2293 2 10.4 -7 0 0 0 0 1.00121 4
2244 2 10.6 -7.2 0 0 0 0 1.00118 4
2294 2 10.6 -7 0 0 0 0 1.00121 4
2245 2 10.8 -7.2 0 0 0 0 1.00116 4
2295 2 10.8 -7 0 0 0 0 1.00118 4
16040 1 1.20213 -6.54063 0.02 0 0 0 1 1
16039 1 1.38135 -6.73521 0.02 0 0 0 1 1
16041 1 1.39499 -6.54936 0.02 0 0 0 1 1
16042 1 1.57984 -6.75894 0.02 0 0 0 1.00004 1
16044 1 1.58697 -6.57051 0.02 0 0 0 1 1
16043 1 1.78945 -6.75979 0.02 0 0 0 1.00016 1
16045 1 1.77341 -6.56758 0.02 0 0 0 1.00001 1
16046 1 1.96001 -6.54947 0.02 0 0 0 1.00001 1
16047 1 1.98239 -6.73835 0.02 0 0 0 1.00006 1
16048 1 2.16709 -6.7321 0.02 0 0 0 0.999959 1
16049 1 2.3595 -6.76354 0.02 0 0 0 0.999985 1
16050 1 2.15056 -6.54057 0.02 0 0 0 0.999998 1
16051 1 2.3351 -6.56091 0.02 0 0 0 1 1
16052 1 2.55927 -6.7443 0.02 0 0 0 1.00001 1
16053 1 2.75435 -6.73455 0.02 0 0 0 0.999994 1
16054 1 2.51402 -6.55137 0.02 0 0 0 1 1
16055 1 2.70354 -6.55287 0.02 0 0 0 1 1
16056 1 2.94767 -6.74905 0.02 0 0 0 0.999997 1
16057 1 3.1455 -6.74634 0.02 0 0 0 1 1
16058 1 2.9062 -6.55686 0.02 0 0 0 1 1
16059 1 3.12002 -6.56939 0.02 0 0 0 1 1
15705 1 3.32009 -6.56601 0.02 0 0 0 1 1
15703 1 3.35361 -6.75746 0.02 0 0 0 1 1
15704 1 3.56339 -6.75211 0.02 0 0 0 1.00001 1
15706 1 3.51372 -6.56694 0.02 0 0 0 1 1
15707 1 3.71015 -6.56434 0.02 0 0 0 1.00002 1
15708 1 3.77119 -6.74445 0.02 0 0 0 1.00002 1
15709 1 3.97388 -6.74367 0.02 0 0 0 1.00009 1
15710 1 3.91281 -6.56357 0.02 0 0 0 1.00007 1
15711 1 4.08019 -6.55593 0.0165648 0.00315673 1.57844e-06 -5.15175e-07 1.00942 0
15712 1 4.1105 -6.7685 0.0110045 0.000752149 7.80592e-06 -1.20102e-07 1.01304 0
15713 1 4.23916 -6.65224 0.0134606 0.00265906 4.16234e-06 3.69505e-06 1.00954 0
15714 1 4.25504 -6.47846 0.016467 0.00402378 6.10249e-07 4.1449e-06 1.00876 0
15716 1 4.42069 -6.47007 0.0160353 0.00363936 1.51464e-06 5.07477e-06 1.00666 0
15715 1 4.37368 -6.71419 0.00984798 0.00131698 4.3504e-06 3.24037e-06 1.00739 0
15717 1 4.55533 -6.57721 0.0127053 0.00222923 2.87195e-06 5.00976e-06 1.00521 0
15718 1 4.53085 -6.76225 0.00695107 0.000756871 3.53591e-06 3.14588e-06 1.00547 0
15376 1 4.74398 -6.53931 0.012105 0.00189502 1.60896e-06 5.87308e-06 1.00441 0
15377 1 4.71239 -6.71751 0.00715526 0.000733609 2.20043e-06 3.53242e-06 1.00416 0
15379 1 4.93449 -6.55805 0.0103063 0.00129567 1.18322e-06 4.96192e-06 1.00386 0
15383 1 4.87887 -6.74933 0.00530683 0.000357851 1.03396e-06 2.91822e-06 1.00394 0
15380 1 5.11369 -6.49822 0.0105975 0.00127596 9.62179e-07 4.69544e-06 1.00364 0
15388 1 5.05685 -6.70351 0.00582459 0.000379512 3.69923e-07 2.96956e-06 1.00351 0
15384 1 5.27416 -6.53987 0.008943 0.000857528 1.32358e-06 3.44951e-06 1.00323 0
14998 1 5.22222 -6.74347 0.00436064 0.000158441 4.36078e-07 1.98631e-06 1.00339 0
15002 1 5.39383 -6.6602 0.0058012 0.00035397 1.22491e-06 1.97113e-06 1.00286 0
15010 1 5.52911 -6.74595 0.00363857 8.89267e-05 1.32836e-06 9.84385e-07 1.00281 0
15006 1 5.72771 -6.6003 0.00611329 0.000395216 3.37079e-06 8.57748e-07 1.00257 0
15014 1 5.90784 -6.55771 0.00646454 0.000410997 4.18528e-06 2.07775e-07 1.00243 0
14659 1 5.72809 -6.7704 0.00296794 5.8305e-05 2.03311e-06 2.48475e-07 1.00263 0
14671 1 5.95536 -6.74129 0.0031146 6.29528e-05 2.7785e-06 -2.28822e-07 1.00244 0
14653 1 6.08965 -6.54797 0.00619998 0.000372816 4.44561e-06 -2.7525e-07 1.00228 0
14664 1 6.27404 -6.54096 0.00593046 0.000342199 4.22666e-06 -5.25328e-07 1.00215 0
14328 1 6.15349 -6.72095 0.00318016 5.28211e-05 3.082e-06 -5.32983e-07 1.0022 0
14660 1 6.44906 -6.54486 0.00553822 0.000286111 3.51361e-06 -6.7003e-07 1.00205 0
13991 1 6.33558 -6.75863 0.00246941 1.65471e-05 2.46213e-06 -5.88979e-07 1.00216 0
13996 1 6.52443 -6.68394 0.00335599 8.85315e-05 2.58502e-06 -5.69887e-07 1.00195 0
14318 1 6.86074 -6.52839 0.00512809 0.000244773 1.29107e-06 -3.64204e-07 1.00188 0
13638 1 6.674 -6.72244 0.00265788 2.85145e-05 1.69786e-06 -4.59579e-07 1.00196 0
13276 1 6.83743 -6.71986 0.00256136 2.50358e-05 1.06934e-06 -3.47356e-07 1.00193 0
14002 1 7.24355 -6.52522 0.00474534 0.000196182 -3.5746e-07 -4.49095e-08 1.00174 0
12923 1 7.0039 -6.71505 0.00251819 1.64841e-05 4.7804e-07 -1.98115e-07 1.00186 0
12927 1 7.17108 -6.71229 0.00244787 1.19234e-05 1.85161e-09 -6.79433e-08 1.0018 0
13631 1 7.42936 -6.52035 0.00463625 0.000175042 -7.76646e-07 1.46525e-08 1.00171 0
12585 1 7.34157 -6.72345 0.00223931 5.7982e-06 -3.33859e-07 2.79369e-08 1.00179 0
13634 1 7.61087 -6.53019 0.00437802 0.000140984 -9.23712e-07 2.32338e-08 1.00166 0
12592 1 7.51867 -6.72036 0.00218719 -1.91978e-06 -5.38537e-07 6.55421e-08 1.00177 0
13642 1 7.79763 -6.53082 0.00423415 0.000120216 -9.14104e-07 -9.22329e-09 1.00162 0
12248 1 7.70435 -6.71929 0.00210204 -7.96442e-06 -6.05341e-07 5.28153e-08 1.00164 0
11919 1 7.95183 -6.61206 0.00321154 6.6472e-05 -6.60344e-07 -2.49608e-08 1.00159 0
11538 1 7.91191 -6.78107 0.00150271 -2.26679e-05 -3.85916e-07 -1.9102e-08 1.00165 0
11195 1 8.12662 -6.71311 0.0020682 4.74082e-06 -4.20142e-07 -4.96862e-08 1.00161 0
12934 1 8.28161 -6.57295 0.00349658 9.07436e-05 -3.7349e-07 -1.56886e-07 1.00151 0
12943 1 8.45376 -6.50684 0.00408917 9.47163e-05 -3.01357e-07 -2.02437e-07 1.00153 0
10864 1 8.32612 -6.73522 0.00179264 -5.20865e-06 -2.01534e-07 -6.47376e-08 1.00154 0
10527 1 8.51687 -6.7334 0.00175753 -1.91126e-05 -1.71863e-07 -1.00587e-07 1.00156 0
12936 1 8.62212 -6.55251 0.00355606 6.41423e-05 -1.6758e-07 -1.71809e-07 1.00149 0
12254 1 8.79804 -6.5488 0.00352643 5.18191e-05 -1.23443e-07 -1.43849e-07 1.00146 0
10538 1 8.71707 -6.73764 0.00168812 -2.1294e-05 -1.1491e-07 -8.63506e-08 1.00154 0
11924 1 8.97012 -6.53097 0.00363657 4.51368e-05 -7.99544e-08 -9.22017e-08 1.00143 0
10178 1 8.92106 -6.72529 0.0017558 -2.24497e-05 -1.04124e-07 -5.52853e-08 1.00146 0
12589 1 9.13421 -6.55517 0.00334952 3.69514e-05 -5.55502e-08 -3.64767e-08 1.00141 0
3116 1 9.11417 -6.76452 0.00141291 -2.0083e-05 -1.0689e-07 1.05735e-08 1.00146 0
10185 1 9.30351 -6.66419 0.00228446 1.31786e-05 -1.14895e-08 2.49754e-08 1.00141 0
3119 1 9.44602 -6.71506 0.00176385 -1.35852e-05 -4.0336e-08 8.75297e-08 1.00141 0
3123 1 9.60662 -6.72146 0.00165425 -2.82401e-05 -2.68125e-08 1.19545e-07 1.00139 0
11916 1 9.79515 -6.57352 0.00299842 2.47185e-05 3.17668e-07 1.20575e-07 1.00132 0
3124 1 9.79492 -6.76673 0.00130849 -3.12199e-05 7.22927e-08 1.37967e-07 1.00137 0
3109 1 9.96302 -6.59096 0.00279626 1.65403e-05 4.57691e-07 1.06234e-07 1.00132 0
3113 1 10.1783 -6.55349 0.00309585 1.61173e-05 8.04953e-07 3.65364e-08 1.00127 0
3125 1 10.0443 -6.74714 0.00142305 -2.00022e-05 3.0526e-07 1.00264e-07 1.00136 0
3126 1 10.2512 -6.70163 0.00176701 -1.8924e-05 6.04552e-07 3.46652e-08 1.00126 0
3117 1 10.512 -6.58454 0.00277073 1.06219e-05 1.18512e-06 -1.07557e-07 1.00122 0
3127 1 10.4189 -6.74801 0.00138648 -3.5255e-05 6.47417e-07 -2.98792e-08 1.00128 0
3128 1 10.6275 -6.74953 0.00135009 -2.87073e-05 8.14187e-07 -1.07248e-07 1.00127 0
3121 1 10.7211 -6.55787 0.0029794 7.23559e-07 1.44034e-06 -2.40882e-07 1.00119 0
3129 1 10.8337 -6.67717 0.00192505 -1.3748e-05 1.20476e-06 -2.26111e-07 1.00116 0
3131 1 10.9772 -6.75908 0.00127975 -2.36045e-05 9.98253e-07 -2.29994e-07 1.0012 0
10521 1 10.98 -6.53119 0.00317983 1.08092e-05 1.6437e-06 -3.79306e-07 1.00115 0
16060 1 1.36719 -6.35187 0.02 0 0 0 1 1
16061 1 1.35922 -6.15322 0.02 0 0 0 1 1
16062 1 1.55365 -6.37687 0.02 0 0 0 1 1
16064 1 1.56239 -6.18311 0.02 0 0 0 1 1
16063 1 1.74439 -6.37271 0.02 0 0 0 1 1
16065 1 1.75766 -6.17218 0.02 0 0 0 1 1
16066 1 1.93891 -6.35872 0.02 0 0 0 1 1
16067 1 1.94806 -6.16367 0.02 0 0 0 1 1
16068 1 2.13537 -6.34714 0.02 0 0 0 1 1
16069 1 2.325 -6.34844 0.02 0 0 0 1 1
16070 1 2.13459 -6.14737 0.02 0 0 0 1 1
16071 1 2.31689 -6.13353 0.02 0 0 0 1 1
16072 1 2.51258 -6.35112 0.02 0 0 0 1 1
16073 1 2.70273 -6.36217 0.02 0 0 0 1 1
16074 1 2.49821 -6.14561 0.02 0 0 0 1 1
16075 1 2.68217 -6.16314 0.02 0 0 0 1 1
16078 1 2.86301 -6.12402 0.02 0 0 0 1 1
16076 1 2.88535 -6.35066 0.02 0 0 0 1 1
15722 1 3.22941 -6.17885 0.02 0 0 0 1 1
15723 1 3.27285 -6.37417 0.02 0 0 0 1 1
16077 1 3.075 -6.39323 0.02 0 0 0 1 1
16079 1 3.03921 -6.19863 0.02 0 0 0 1 1
15724 1 3.47087 -6.37597 0.02 0 0 0 1 1
15725 1 3.42728 -6.18372 0.02 0 0 0 1 1
15727 1 3.63224 -6.18814 0.02 0 0 0 1.00001 1
15726 1 3.66925 -6.37632 0.02 0 0 0 1.00001 1
15728 1 3.86902 -6.37778 0.02 0 0 0 1.00005 1
15729 1 3.84487 -6.19283 0.02 0 0 0 1.00005 1
15730 1 4.04768 -6.3776 0.0173081 0.00277941 -5.12934e-08 -2.9825e-07 1.00814 0
15731 1 4.04575 -6.19529 0.0177761 0.0027123 -1.97402e-07 5.86304e-07 1.00709 0
15732 1 4.22631 -6.3068 0.0177128 0.004415 -1.05925e-06 3.72597e-06 1.00764 0
15734 1 4.26584 -6.13894 0.0186248 0.00466642 -1.03934e-06 4.31135e-06 1.00627 0
15733 1 4.42314 -6.26382 0.0181256 0.00462403 -4.95711e-07 5.70987e-06 1.00584 0
15735 1 4.4833 -6.08267 0.0189531 0.0050051 -1.10792e-06 5.93417e-06 1.00502 0
15719 1 4.5819 -6.37575 0.0163227 0.00362292 5.45062e-07 6.28584e-06 1.00529 0
15720 1 4.75412 -6.34905 0.0155428 0.00313049 2.3377e-07 6.46389e-06 1.00473 0
15736 1 4.6319 -6.18436 0.0179414 0.00445051 -5.7544e-07 6.55215e-06 1.00487 0
15738 1 4.71364 -6.00991 0.0187253 0.00487717 -9.16663e-07 6.27719e-06 1.00447 0
15737 1 4.8308 -6.16887 0.0171168 0.00390008 -3.8189e-07 6.55293e-06 1.00447 0
15721 1 4.92287 -6.36931 0.0141105 0.00244332 4.16363e-07 6.02524e-06 1.00431 0
15378 1 5.08281 -6.30442 0.0141083 0.00239688 6.00926e-07 5.52558e-06 1.00397 0
15740 1 5.00851 -6.13272 0.0165591 0.00353139 -6.68451e-08 5.93416e-06 1.00408 0