ITEM: TIMESTEP
63000
ITEM: NUMBER OF ATOMS
10600
ITEM: BOX BOUNDS ff ff pp
0.0000000000000000e+00 2.2000000000000000e+01
-1.0000000000000000e+01 1.0000000000000000e+01
-2.0000000000000000e-02 2.0000000000000000e-02
ITEM: ATOMS id type x y vx vy fx fy c_den c_phase
1501 2 2 -10 0 0 0 0 1 4
1551 2 2 -9.8 0 0 0 0 1 4
1601 2 2 -9.6 0 0 0 0 1 4
1502 2 2.2 -10 0 0 0 0 1 4
1503 2 2.4 -10 0 0 0 0 1 4
1552 2 2.2 -9.8 0 0 0 0 1 4
1553 2 2.4 -9.8 0 0 0 0 1 4
1602 2 2.2 -9.6 0 0 0 0 1 4
1603 2 2.4 -9.6 0 0 0 0 1 4
1504 2 2.6 -10 0 0 0 0 1 4
1505 2 2.8 -10 0 0 0 0 1 4
1554 2 2.6 -9.8 0 0 0 0 1 4
1555 2 2.8 -9.8 0 0 0 0 1 4
1604 2 2.6 -9.6 0 0 0 0 1 4
1605 2 2.8 -9.6 0 0 0 0 1 4
1506 2 3 -10 0 0 0 0 1 4
1507 2 3.2 -10 0 0 0 0 1 4
1556 2 3 -9.8 0 0 0 0 1 4
1557 2 3.2 -9.8 0 0 0 0 1 4
1606 2 3 -9.6 0 0 0 0 1 4
1607 2 3.2 -9.6 0 0 0 0 1 4
1508 2 3.4 -10 0 0 0 0 1 4
1509 2 3.6 -10 0 0 0 0 1 4
1558 2 3.4 -9.8 0 0 0 0 1 4
1559 2 3.6 -9.8 0 0 0 0 1 4
1608 2 3.4 -9.6 0 0 0 0 1 4
1609 2 3.6 -9.6 0 0 0 0 1 4
1510 2 3.8 -10 0 0 0 0 1 4
1560 2 3.8 -9.8 0 0 0 0 1 4
1610 2 3.8 -9.6 0 0 0 0 1 4
1511 2 4 -10 0 0 0 0 1 4
1561 2 4 -9.8 0 0 0 0 1 4
1611 2 4 -9.6 0 0 0 0 1 4
1512 2 4.2 -10 0 0 0 0 1 4
1562 2 4.2 -9.8 0 0 0 0 1 4
1612 2 4.2 -9.6 0 0 0 0 1 4
1513 2 4.4 -10 0 0 0 0 1 4
1514 2 4.6 -10 0 0 0 0 1 4
1563 2 4.4 -9.8 0 0 0 0 1 4
1564 2 4.6 -9.8 0 0 0 0 1 4
1613 2 4.4 -9.6 0 0 0 0 1 4
1614 2 4.6 -9.6 0 0 0 0 1 4
1515 2 4.8 -10 0 0 0 0 1 4
1516 2 5 -10 0 0 0 0 1 4
1565 2 4.8 -9.8 0 0 0 0 1 4
1566 2 5 -9.8 0 0 0 0 1 4
1615 2 4.8 -9.6 0 0 0 0 1 4
1616 2 5 -9.6 0 0 0 0 1 4
1517 2 5.2 -10 0 0 0 0 1 4
1518 2 5.4 -10 0 0 0 0 1 4
1567 2 5.2 -9.8 0 0 0 0 1 4
1568 2 5.4 -9.8 0 0 0 0 1 4
1617 2 5.2 -9.6 0 0 0 0 1 4
1618 2 5.4 -9.6 0 0 0 0 1 4
1519 2 5.6 -10 0 0 0 0 1 4
1520 2 5.8 -10 0 0 0 0 1 4
1569 2 5.6 -9.8 0 0 0 0 1 4
1570 2 5.8 -9.8 0 0 0 0 1 4
1619 2 5.6 -9.6 0 0 0 0 1 4
1620 2 5.8 -9.6 0 0 0 0 1 4
1521 2 6 -10 0 0 0 0 1 4
1522 2 6.2 -10 0 0 0 0 1 4
1571 2 6 -9.8 0 0 0 0 1 4
1572 2 6.2 -9.8 0 0 0 0 1 4
1621 2 6 -9.6 0 0 0 0 1 4
1622 2 6.2 -9.6 0 0 0 0 1 4
1523 2 6.4 -10 0 0 0 0 1 4
1524 2 6.6 -10 0 0 0 0 1 4
1573 2 6.4 -9.8 0 0 0 0 1 4
1574 2 6.6 -9.8 0 0 0 0 1 4
1623 2 6.4 -9.6 0 0 0 0 1 4
1624 2 6.6 -9.6 0 0 0 0 1 4
1525 2 6.8 -10 0 0 0 0 1 4
1526 2 7 -10 0 0 0 0 1 4
1575 2 6.8 -9.8 0 0 0 0 1 4
1576 2 7 -9.8 0 0 0 0 1 4
1625 2 6.8 -9.6 0 0 0 0 1 4
1626 2 7 -9.6 0 0 0 0 1 4
1527 2 7.2 -10 0 0 0 0 1 4
1577 2 7.2 -9.8 0 0 0 0 1 4
1627 2 7.2 -9.6 0 0 0 0 1 4
1528 2 7.4 -10 0 0 0 0 1 4
1529 2 7.6 -10 0 0 0 0 1 4
1578 2 7.4 -9.8 0 0 0 0 1 4
1579 2 7.6 -9.8 0 0 0 0 1 4
1628 2 7.4 -9.6 0 0 0 0 1 4
1629 2 7.6 -9.6 0 0 0 0 1 4
1530 2 7.8 -10 0 0 0 0 1 4
1531 2 8 -10 0 0 0 0 1 4
1580 2 7.8 -9.8 0 0 0 0 1 4
1581 2 8 -9.8 0 0 0 0 1 4
1630 2 7.8 -9.6 0 0 0 0 1 4
1631 2 8 -9.6 0 0 0 0 1 4
1532 2 8.2 -10 0 0 0 0 1 4
1533 2 8.4 -10 0 0 0 0 1 4
1582 2 8.2 -9.8 0 0 0 0 1 4
1583 2 8.4 -9.8 0 0 0 0 1 4
1632 2 8.2 -9.6 0 0 0 0 1 4
1633 2 8.4 -9.6 0 0 0 0 1 4
1534 2 8.6 -10 0 0 0 0 1 4
1535 2 8.8 -10 0 0 0 0 1 4
1584 2 8.6 -9.8 0 0 0 0 1 4
1585 2 8.8 -9.8 0 0 0 0 1 4
1634 2 8.6 -9.6 0 0 0 0 1 4
1635 2 8.8 -9.6 0 0 0 0 1 4
1536 2 9 -10 0 0 0 0 1 4
1537 2 9.2 -10 0 0 0 0 1 4
1586 2 9 -9.8 0 0 0 0 1 4
1587 2 9.2 -9.8 0 0 0 0 1 4
1636 2 9 -9.6 0 0 0 0 1 4
1637 2 9.2 -9.6 0 0 0 0 1 4
1538 2 9.4 -10 0 0 0 0 1 4
1539 2 9.6 -10 0 0 0 0 1 4
1588 2 9.4 -9.8 0 0 0 0 1 4
1589 2 9.6 -9.8 0 0 0 0 1 4
1638 2 9.4 -9.6 0 0 0 0 1 4
1639 2 9.6 -9.6 0 0 0 0 1 4
1540 2 9.8 -10 0 0 0 0 1 4
1590 2 9.8 -9.8 0 0 0 0 1 4
1640 2 9.8 -9.6 0 0 0 0 1 4
1541 2 10 -10 0 0 0 0 1 4
1591 2 10 -9.8 0 0 0 0 1 4
1641 2 10 -9.6 0 0 0 0 1 4
1542 2 10.2 -10 0 0 0 0 1 4
1592 2 10.2 -9.8 0 0 0 0 1 4
1642 2 10.2 -9.6 0 0 0 0 1 4
1543 2 10.4 -10 0 0 0 0 1 4
1593 2 10.4 -9.8 0 0 0 0 1 4
1643 2 10.4 -9.6 0 0 0 0 1 4
1544 2 10.6 -10 0 0 0 0 1 4
1594 2 10.6 -9.8 0 0 0 0 1 4
1644 2 10.6 -9.6 0 0 0 0 1 4
1545 2 10.8 -10 0 0 0 0 1 4
1595 2 10.8 -9.8 0 0 0 0 1 4
1645 2 10.8 -9.6 0 0 0 0 1 4
1651 2 2 -9.4 0 0 0 0 1 4
1701 2 2 -9.2 0 0 0 0 1 4
1652 2 2.2 -9.4 0 0 0 0 1 4
1653 2 2.4 -9.4 0 0 0 0 1 4
1702 2 2.2 -9.2 0 0 0 0 1 4
1703 2 2.4 -9.2 0 0 0 0 1 4
1654 2 2.6 -9.4 0 0 0 0 1 4
1655 2 2.8 -9.4 0 0 0 0 1 4
1704 2 2.6 -9.2 0 0 0 0 1 4
1705 2 2.8 -9.2 0 0 0 0 1 4
1656 2 3 -9.4 0 0 0 0 1 4
1657 2 3.2 -9.4 0 0 0 0 1 4
1706 2 3 -9.2 0 0 0 0 1 4
1707 2 3.2 -9.2 0 0 0 0 1 4
1658 2 3.4 -9.4 0 0 0 0 1 4
1659 2 3.6 -9.4 0 0 0 0 1 4
1708 2 3.4 -9.2 0 0 0 0 1 4
1709 2 3.6 -9.2 0 0 0 0 1 4
1660 2 3.8 -9.4 0 0 0 0 1 4
1710 2 3.8 -9.2 0 0 0 0 1 4
1661 2 4 -9.4 0 0 0 0 1 4
1711 2 4 -9.2 0 0 0 0 1 4
1662 2 4.2 -9.4 0 0 0 0 1 4
1712 2 4.2 -9.2 0 0 0 0 1 4
1663 2 4.4 -9.4 0 0 0 0 1 4
1664 2 4.6 -9.4 0 0 0 0 1 4
1713 2 4.4 -9.2 0 0 0 0 1 4
1714 2 4.6 -9.2 0 0 0 0 1 4
1665 2 4.8 -9.4 0 0 0 0 1 4
1666 2 5 -9.4 0 0 0 0 1 4
1715 2 4.8 -9.2 0 0 0 0 1 4
1716 2 5 -9.2 0 0 0 0 1 4
1667 2 5.2 -9.4 0 0 0 0 1 4
1668 2 5.4 -9.4 0 0 0 0 1 4
1717 2 5.2 -9.2 0 0 0 0 1 4
1718 2 5.4 -9.2 0 0 0 0 1 4
1669 2 5.6 -9.4 0 0 0 0 1 4
1670 2 5.8 -9.4 0 0 0 0 1 4
1719 2 5.6 -9.2 0 0 0 0 1 4
1720 2 5.8 -9.2 0 0 0 0 1 4
1671 2 6 -9.4 0 0 0 0 1 4
1672 2 6.2 -9.4 0 0 0 0 1 4
1721 2 6 -9.2 0 0 0 0 1 4
1722 2 6.2 -9.2 0 0 0 0 1 4
1673 2 6.4 -9.4 0 0 0 0 1 4
1674 2 6.6 -9.4 0 0 0 0 1 4
1723 2 6.4 -9.2 0 0 0 0 1 4
1724 2 6.6 -9.2 0 0 0 0 1 4
1675 2 6.8 -9.4 0 0 0 0 1 4
1676 2 7 -9.4 0 0 0 0 1 4
1725 2 6.8 -9.2 0 0 0 0 1 4
1726 2 7 -9.2 0 0 0 0 1 4
1677 2 7.2 -9.4 0 0 0 0 1 4
1727 2 7.2 -9.2 0 0 0 0 1 4
1678 2 7.4 -9.4 0 0 0 0 1 4
1679 2 7.6 -9.4 0 0 0 0 1 4
1728 2 7.4 -9.2 0 0 0 0 1 4
1729 2 7.6 -9.2 0 0 0 0 1 4
1680 2 7.8 -9.4 0 0 0 0 1 4
1681 2 8 -9.4 0 0 0 0 1 4
1730 2 7.8 -9.2 0 0 0 0 1 4
1731 2 8 -9.2 0 0 0 0 1 4
1682 2 8.2 -9.4 0 0 0 0 1 4
1683 2 8.4 -9.4 0 0 0 0 1 4
1732 2 8.2 -9.2 0 0 0 0 1 4
1733 2 8.4 -9.2 0 0 0 0 1 4
1684 2 8.6 -9.4 0 0 0 0 1 4
1685 2 8.8 -9.4 0 0 0 0 1 4
1734 2 8.6 -9.2 0 0 0 0 1 4
1735 2 8.8 -9.2 0 0 0 0 1 4
1686 2 9 -9.4 0 0 0 0 1 4
1687 2 9.2 -9.4 0 0 0 0 1 4
1736 2 9 -9.2 0 0 0 0 1 4
1737 2 9.2 -9.2 0 0 0 0 1 4
1688 2 9.4 -9.4 0 0 0 0 1 4
1689 2 9.6 -9.4 0 0 0 0 1 4
1738 2 9.4 -9.2 0 0 0 0 1 4
1739 2 9.6 -9.2 0 0 0 0 1 4
1690 2 9.8 -9.4 0 0 0 0 1 4
1740 2 9.8 -9.2 0 0 0 0 1 4
1691 2 10 -9.4 0 0 0 0 1 4
1741 2 10 -9.2 0 0 0 0 1 4
1692 2 10.2 -9.4 0 0 0 0 1 4
1742 2 10.2 -9.2 0 0 0 0 1 4
1693 2 10.4 -9.4 0 0 0 0 1 4
1743 2 10.4 -9.2 0 0 0 0 1 4
1694 2 10.6 -9.4 0 0 0 0 1 4
1744 2 10.6 -9.2 0 0 0 0 1 4
1695 2 10.8 -9.4 0 0 0 0 1 4
1745 2 10.8 -9.2 0 0 0 0 1 4
1751 2 2 -9 0 0 0 0 1 4
1801 2 2 -8.8 0 0 0 0 1 4
1752 2 2.2 -9 0 0 0 0 1 4
1753 2 2.4 -9 0 0 0 0 1 4
1802 2 2.2 -8.8 0 0 0 0 1 4
1803 2 2.4 -8.8 0 0 0 0 1 4
1754 2 2.6 -9 0 0 0 0 1 4
1755 2 2.8 -9 0 0 0 0 1 4
1804 2 2.6 -8.8 0 0 0 0 1 4
1805 2 2.8 -8.8 0 0 0 0 1 4
1756 2 3 -9 0 0 0 0 1 4
1757 2 3.2 -9 0 0 0 0 1 4
1806 2 3 -8.8 0 0 0 0 1 4
1807 2 3.2 -8.8 0 0 0 0 1 4
1758 2 3.4 -9 0 0 0 0 1 4
1759 2 3.6 -9 0 0 0 0 1 4
1808 2 3.4 -8.8 0 0 0 0 1 4
1809 2 3.6 -8.8 0 0 0 0 1 4
1760 2 3.8 -9 0 0 0 0 1 4
1810 2 3.8 -8.8 0 0 0 0 1 4
1761 2 4 -9 0 0 0 0 1 4
1811 2 4 -8.8 0 0 0 0 1 4
1762 2 4.2 -9 0 0 0 0 1 4
1812 2 4.2 -8.8 0 0 0 0 1 4
1763 2 4.4 -9 0 0 0 0 1 4
1764 2 4.6 -9 0 0 0 0 1 4
1813 2 4.4 -8.8 0 0 0 0 1 4
1814 2 4.6 -8.8 0 0 0 0 1 4
1765 2 4.8 -9 0 0 0 0 1 4
1766 2 5 -9 0 0 0 0 1 4
1815 2 4.8 -8.8 0 0 0 0 1 4
1816 2 5 -8.8 0 0 0 0 1 4
1767 2 5.2 -9 0 0 0 0 1 4
1768 2 5.4 -9 0 0 0 0 1 4
1817 2 5.2 -8.8 0 0 0 0 1 4
1818 2 5.4 -8.8 0 0 0 0 1 4
1769 2 5.6 -9 0 0 0 0 1 4
1770 2 5.8 -9 0 0 0 0 1 4
1819 2 5.6 -8.8 0 0 0 0 1 4
1820 2 5.8 -8.8 0 0 0 0 1 4
1771 2 6 -9 0 0 0 0 1 4
1772 2 6.2 -9 0 0 0 0 1 4
1821 2 6 -8.8 0 0 0 0 1 4
1822 2 6.2 -8.8 0 0 0 0 1 4
1773 2 6.4 -9 0 0 0 0 1 4
1774 2 6.6 -9 0 0 0 0 1 4
1823 2 6.4 -8.8 0 0 0 0 1 4
1824 2 6.6 -8.8 0 0 0 0 1 4
1775 2 6.8 -9 0 0 0 0 1 4
1776 2 7 -9 0 0 0 0 1 4
1825 2 6.8 -8.8 0 0 0 0 1 4
1826 2 7 -8.8 0 0 0 0 1 4
1777 2 7.2 -9 0 0 0 0 1 4
1827 2 7.2 -8.8 0 0 0 0 1 4
1778 2 7.4 -9 0 0 0 0 1 4
1779 2 7.6 -9 0 0 0 0 1 4
1828 2 7.4 -8.8 0 0 0 0 1 4
1829 2 7.6 -8.8 0 0 0 0 1 4
1780 2 7.8 -9 0 0 0 0 1 4
1781 2 8 -9 0 0 0 0 1 4
1830 2 7.8 -8.8 0 0 0 0 1 4
1831 2 8 -8.8 0 0 0 0 1 4
1782 2 8.2 -9 0 0 0 0 1 4
1783 2 8.4 -9 0 0 0 0 1 4
1832 2 8.2 -8.8 0 0 0 0 1 4
1833 2 8.4 -8.8 0 0 0 0 1 4
1784 2 8.6 -9 0 0 0 0 1 4
1785 2 8.8 -9 0 0 0 0 1 4
1834 2 8.6 -8.8 0 0 0 0 1 4
1835 2 8.8 -8.8 0 0 0 0 1 4
1786 2 9 -9 0 0 0 0 1 4
1787 2 9.2 -9 0 0 0 0 1 4
1836 2 9 -8.8 0 0 0 0 1 4
1837 2 9.2 -8.8 0 0 0 0 1 4
1788 2 9.4 -9 0 0 0 0 1 4
1789 2 9.6 -9 0 0 0 0 1 4
1838 2 9.4 -8.8 0 0 0 0 1 4
1839 2 9.6 -8.8 0 0 0 0 1 4
1790 2 9.8 -9 0 0 0 0 1 4
1840 2 9.8 -8.8 0 0 0 0 1 4
1791 2 10 -9 0 0 0 0 1 4
1841 2 10 -8.8 0 0 0 0 1 4
1792 2 10.2 -9 0 0 0 0 1 4
1842 2 10.2 -8.8 0 0 0 0 1 4
1793 2 10.4 -9 0 0 0 0 1 4
1843 2 10.4 -8.8 0 0 0 0 1 4
1794 2 10.6 -9 0 0 0 0 1 4
1844 2 10.6 -8.8 0 0 0 0 1 4
1795 2 10.8 -9 0 0 0 0 1 4
1845 2 10.8 -8.8 0 0 0 0 1 4
1851 2 2 -8.6 0 0 0 0 1 4
1901 2 2 -8.4 0 0 0 0 1 4
1852 2 2.2 -8.6 0 0 0 0 1 4
1853 2 2.4 -8.6 0 0 0 0 1 4
1902 2 2.2 -8.4 0 0 0 0 1 4
1903 2 2.4 -8.4 0 0 0 0 1 4
1854 2 2.6 -8.6 0 0 0 0 1 4
1855 2 2.8 -8.6 0 0 0 0 1 4
1904 2 2.6 -8.4 0 0 0 0 1 4
1905 2 2.8 -8.4 0 0 0 0 1 4
1856 2 3 -8.6 0 0 0 0 1 4
1857 2 3.2 -8.6 0 0 0 0 1 4
1906 2 3 -8.4 0 0 0 0 1 4
1907 2 3.2 -8.4 0 0 0 0 1 4
1858 2 3.4 -8.6 0 0 0 0 1 4
1859 2 3.6 -8.6 0 0 0 0 1 4
1908 2 3.4 -8.4 0 0 0 0 1 4
1909 2 3.6 -8.4 0 0 0 0 1 4
1860 2 3.8 -8.6 0 0 0 0 1 4
1910 2 3.8 -8.4 0 0 0 0 1 4
1861 2 4 -8.6 0 0 0 0 1 4
1911 2 4 -8.4 0 0 0 0 1 4
1862 2 4.2 -8.6 0 0 0 0 1 4
1912 2 4.2 -8.4 0 0 0 0 1 4
1863 2 4.4 -8.6 0 0 0 0 1 4
1864 2 4.6 -8.6 0 0 0 0 1 4
1913 2 4.4 -8.4 0 0 0 0 1 4
1914 2 4.6 -8.4 0 0 0 0 1 4
1865 2 4.8 -8.6 0 0 0 0 1 4
1866 2 5 -8.6 0 0 0 0 1 4
1915 2 4.8 -8.4 0 0 0 0 1 4
1916 2 5 -8.4 0 0 0 0 1 4
1867 2 5.2 -8.6 0 0 0 0 1 4
1868 2 5.4 -8.6 0 0 0 0 1 4
1917 2 5.2 -8.4 0 0 0 0 1 4
1918 2 5.4 -8.4 0 0 0 0 1 4
1869 2 5.6 -8.6 0 0 0 0 1 4
1870 2 5.8 -8.6 0 0 0 0 1 4
1919 2 5.6 -8.4 0 0 0 0 1 4
1920 2 5.8 -8.4 0 0 0 0 1 4
1871 2 6 -8.6 0 0 0 0 1 4
1872 2 6.2 -8.6 0 0 0 0 1 4
1921 2 6 -8.4 0 0 0 0 1 4
1922 2 6.2 -8.4 0 0 0 0 1 4
1873 2 6.4 -8.6 0 0 0 0 1 4
1874 2 6.6 -8.6 0 0 0 0 1 4
1923 2 6.4 -8.4 0 0 0 0 1 4
1924 2 6.6 -8.4 0 0 0 0 1 4
1875 2 6.8 -8.6 0 0 0 0 1 4
1876 2 7 -8.6 0 0 0 0 1 4
1925 2 6.8 -8.4 0 0 0 0 1 4
1926 2 7 -8.4 0 0 0 0 1 4
1877 2 7.2 -8.6 0 0 0 0 1 4
1927 2 7.2 -8.4 0 0 0 0 1 4
1878 2 7.4 -8.6 0 0 0 0 1 4
1879 2 7.6 -8.6 0 0 0 0 1 4
1928 2 7.4 -8.4 0 0 0 0 1 4
1929 2 7.6 -8.4 0 0 0 0 1 4
1880 2 7.8 -8.6 0 0 0 0 1 4
1881 2 8 -8.6 0 0 0 0 1 4
1930 2 7.8 -8.4 0 0 0 0 1 4
1931 2 8 -8.4 0 0 0 0 1 4
1882 2 8.2 -8.6 0 0 0 0 1 4
1883 2 8.4 -8.6 0 0 0 0 1 4
1932 2 8.2 -8.4 0 0 0 0 1 4
1933 2 8.4 -8.4 0 0 0 0 1 4
1884 2 8.6 -8.6 0 0 0 0 1 4
1885 2 8.8 -8.6 0 0 0 0 1 4
1934 2 8.6 -8.4 0 0 0 0 1 4
1935 2 8.8 -8.4 0 0 0 0 1 4
1886 2 9 -8.6 0 0 0 0 1 4
1887 2 9.2 -8.6 0 0 0 0 1 4
1936 2 9 -8.4 0 0 0 0 1 4
1937 2 9.2 -8.4 0 0 0 0 1 4
1888 2 9.4 -8.6 0 0 0 0 1 4
1889 2 9.6 -8.6 0 0 0 0 1 4
1938 2 9.4 -8.4 0 0 0 0 1 4
1939 2 9.6 -8.4 0 0 0 0 1 4
1890 2 9.8 -8.6 0 0 0 0 1 4
1940 2 9.8 -8.4 0 0 0 0 1 4
1891 2 10 -8.6 0 0 0 0 1 4
1941 2 10 -8.4 0 0 0 0 1 4
1892 2 10.2 -8.6 0 0 0 0 1 4
1942 2 10.2 -8.4 0 0 0 0 1 4
1893 2 10.4 -8.6 0 0 0 0 1 4
1943 2 10.4 -8.4 0 0 0 0 1 4
1894 2 10.6 -8.6 0 0 0 0 1 4
1944 2 10.6 -8.4 0 0 0 0 1 4
1895 2 10.8 -8.6 0 0 0 0 1 4
1945 2 10.8 -8.4 0 0 0 0 1 4
1951 2 2 -8.2 0 0 0 0 1 4
2001 2 2 -8 0 0 0 0 1 4
1952 2 2.2 -8.2 0 0 0 0 1 4
1953 2 2.4 -8.2 0 0 0 0 1 4
2002 2 2.2 -8 0 0 0 0 1 4
2003 2 2.4 -8 0 0 0 0 1 4
1954 2 2.6 -8.2 0 0 0 0 1 4
1955 2 2.8 -8.2 0 0 0 0 1 4
2004 2 2.6 -8 0 0 0 0 1 4
2005 2 2.8 -8 0 0 0 0 1 4
1956 2 3 -8.2 0 0 0 0 1 4
1957 2 3.2 -8.2 0 0 0 0 1 4
2006 2 3 -8 0 0 0 0 1 4
2007 2 3.2 -8 0 0 0 0 1 4
1958 2 3.4 -8.2 0 0 0 0 1 4
1959 2 3.6 -8.2 0 0 0 0 1 4
2008 2 3.4 -8 0 0 0 0 1 4
2009 2 3.6 -8 0 0 0 0 1 4
1960 2 3.8 -8.2 0 0 0 0 1 4
2010 2 3.8 -8 0 0 0 0 1 4
1961 2 4 -8.2 0 0 0 0 1 4
2011 2 4 -8 0 0 0 0 1 4
1962 2 4.2 -8.2 0 0 0 0 1 4
2012 2 4.2 -8 0 0 0 0 1 4
1963 2 4.4 -8.2 0 0 0 0 1 4
1964 2 4.6 -8.2 0 0 0 0 1 4
2013 2 4.4 -8 0 0 0 0 1 4
2014 2 4.6 -8 0 0 0 0 1 4
1965 2 4.8 -8.2 0 0 0 0 1 4
1966 2 5 -8.2 0 0 0 0 1 4
2015 2 4.8 -8 0 0 0 0 1 4
2016 2 5 -8 0 0 0 0 1 4
1967 2 5.2 -8.2 0 0 0 0 1 4
1968 2 5.4 -8.2 0 0 0 0 1 4
2017 2 5.2 -8 0 0 0 0 1 4
2018 2 5.4 -8 0 0 0 0 1 4
1969 2 5.6 -8.2 0 0 0 0 1 4
1970 2 5.8 -8.2 0 0 0 0 1 4
2019 2 5.6 -8 0 0 0 0 1 4
2020 2 5.8 -8 0 0 0 0 1 4
1971 2 6 -8.2 0 0 0 0 1 4
1972 2 6.2 -8.2 0 0 0 0 1 4
2021 2 6 -8 0 0 0 0 1 4
2022 2 6.2 -8 0 0 0 0 1 4
1973 2 6.4 -8.2 0 0 0 0 1 4
1974 2 6.6 -8.2 0 0 0 0 1 4
2023 2 6.4 -8 0 0 0 0 1 4
2024 2 6.6 -8 0 0 0 0 1 4
1975 2 6.8 -8.2 0 0 0 0 1 4
1976 2 7 -8.2 0 0 0 0 1 4
2025 2 6.8 -8 0 0 0 0 1 4
2026 2 7 -8 0 0 0 0 1 4
1977 2 7.2 -8.2 0 0 0 0 1 4
2027 2 7.2 -8 0 0 0 0 1 4
1978 2 7.4 -8.2 0 0 0 0 1 4
1979 2 7.6 -8.2 0 0 0 0 1 4
2028 2 7.4 -8 0 0 0 0 1 4
2029 2 7.6 -8 0 0 0 0 1 4
1980 2 7.8 -8.2 0 0 0 0 1 4
1981 2 8 -8.2 0 0 0 0 1 4
2030 2 7.8 -8 0 0 0 0 1 4
2031 2 8 -8 0 0 0 0 1 4
1982 2 8.2 -8.2 0 0 0 0 1 4
1983 2 8.4 -8.2 0 0 0 0 1 4
2032 2 8.2 -8 0 0 0 0 1 4
2033 2 8.4 -8 0 0 0 0 1 4
1984 2 8.6 -8.2 0 0 0 0 1 4
1985 2 8.8 -8.2 0 0 0 0 1 4
2034 2 8.6 -8 0 0 0 0 1 4
2035 2 8.8 -8 0 0 0 0 1 4
1986 2 9 -8.2 0 0 0 0 1 4
1987 2 9.2 -8.2 0 0 0 0 1 4
2036 2 9 -8 0 0 0 0 1 4
2037 2 9.2 -8 0 0 0 0 1 4
1988 2 9.4 -8.2 0 0 0 0 1 4
1989 2 9.6 -8.2 0 0 0 0 1 4
2038 2 9.4 -8 0 0 0 0 1 4
2039 2 9.6 -8 0 0 0 0 1 4
1990 2 9.8 -8.2 0 0 0 0 1 4
2040 2 9.8 -8 0 0 0 0 1 4
1991 2 10 -8.2 0 0 0 0 1 4
2041 2 10 -8 0 0 0 0 1 4
1992 2 10.2 -8.2 0 0 0 0 1 4
2042 2 10.2 -8 0 0 0 0 1 4
1993 2 10.4 -8.2 0 0 0 0 1 4
2043 2 10.4 -8 0 0 0 0 1 4
1994 2 10.6 -8.2 0 0 0 0 1 4
2044 2 10.6 -8 0 0 0 0 1 4
1995 2 10.8 -8.2 0 0 0 0 1 4
2045 2 10.8 -8 0 0 0 0 1 4
2051 2 2 -7.8 0 0 0 0 1 4
2101 2 2 -7.6 0 0 0 0 1 4
2151 2 2 -7.4 0 0 0 0 1.00002 4
2052 2 2.2 -7.8 0 0 0 0 1 4
2053 2 2.4 -7.8 0 0 0 0 1 4
2102 2 2.2 -7.6 0 0 0 0 1 4
2103 2 2.4 -7.6 0 0 0 0 1 4
2152 2 2.2 -7.4 0 0 0 0 0.999949 4
2153 2 2.4 -7.4 0 0 0 0 0.99998 4
2054 2 2.6 -7.8 0 0 0 0 1 4
2055 2 2.8 -7.8 0 0 0 0 1 4
2104 2 2.6 -7.6 0 0 0 0 1 4
2105 2 2.8 -7.6 0 0 0 0 1 4
2154 2 2.6 -7.4 0 0 0 0 1.00001 4
2155 2 2.8 -7.4 0 0 0 0 1.00001 4
2056 2 3 -7.8 0 0 0 0 1 4
2057 2 3.2 -7.8 0 0 0 0 1 4
2106 2 3 -7.6 0 0 0 0 1 4
2107 2 3.2 -7.6 0 0 0 0 1 4
2156 2 3 -7.4 0 0 0 0 0.999995 4
2157 2 3.2 -7.4 0 0 0 0 0.999992 4
2058 2 3.4 -7.8 0 0 0 0 1 4
2059 2 3.6 -7.8 0 0 0 0 1 4
2108 2 3.4 -7.6 0 0 0 0 1 4
2109 2 3.6 -7.6 0 0 0 0 1 4
2158 2 3.4 -7.4 0 0 0 0 1.00001 4
2159 2 3.6 -7.4 0 0 0 0 1.00002 4
2060 2 3.8 -7.8 0 0 0 0 1 4
2110 2 3.8 -7.6 0 0 0 0 1 4
2160 2 3.8 -7.4 0 0 0 0 1.00005 4
2061 2 4 -7.8 0 0 0 0 1 4
2111 2 4 -7.6 0 0 0 0 1 4
2161 2 4 -7.4 0 0 0 0 1.0002 4
2062 2 4.2 -7.8 0 0 0 0 1 4
2112 2 4.2 -7.6 0 0 0 0 1 4
2162 2 4.2 -7.4 0 0 0 0 1.00168 4
2063 2 4.4 -7.8 0 0 0 0 1 4
2064 2 4.6 -7.8 0 0 0 0 1 4
2113 2 4.4 -7.6 0 0 0 0 1 4
2114 2 4.6 -7.6 0 0 0 0 1 4
2163 2 4.4 -7.4 0 0 0 0 1.00452 4
2164 2 4.6 -7.4 0 0 0 0 1.00317 4
2065 2 4.8 -7.8 0 0 0 0 1 4
2066 2 5 -7.8 0 0 0 0 1 4
2115 2 4.8 -7.6 0 0 0 0 1 4
2116 2 5 -7.6 0 0 0 0 1 4
2165 2 4.8 -7.4 0 0 0 0 1.00214 4
2166 2 5 -7.4 0 0 0 0 1.00207 4
2067 2 5.2 -7.8 0 0 0 0 1 4
2068 2 5.4 -7.8 0 0 0 0 1 4
2117 2 5.2 -7.6 0 0 0 0 1 4
2118 2 5.4 -7.6 0 0 0 0 1 4
2167 2 5.2 -7.4 0 0 0 0 1.00207 4
2168 2 5.4 -7.4 0 0 0 0 1.00204 4
2069 2 5.6 -7.8 0 0 0 0 1 4
2070 2 5.8 -7.8 0 0 0 0 1 4
2119 2 5.6 -7.6 0 0 0 0 1 4
2120 2 5.8 -7.6 0 0 0 0 1 4
2169 2 5.6 -7.4 0 0 0 0 1.00205 4
2170 2 5.8 -7.4 0 0 0 0 1.0019 4
2071 2 6 -7.8 0 0 0 0 1 4
2072 2 6.2 -7.8 0 0 0 0 1 4
2121 2 6 -7.6 0 0 0 0 1 4
2122 2 6.2 -7.6 0 0 0 0 1 4
2171 2 6 -7.4 0 0 0 0 1.00188 4
2172 2 6.2 -7.4 0 0 0 0 1.0019 4
2073 2 6.4 -7.8 0 0 0 0 1 4
2074 2 6.6 -7.8 0 0 0 0 1 4
2123 2 6.4 -7.6 0 0 0 0 1 4
2124 2 6.6 -7.6 0 0 0 0 1 4
2173 2 6.4 -7.4 0 0 0 0 1.00149 4
2174 2 6.6 -7.4 0 0 0 0 1.00149 4
2075 2 6.8 -7.8 0 0 0 0 1 4
2076 2 7 -7.8 0 0 0 0 1 4
2125 2 6.8 -7.6 0 0 0 0 1 4
2126 2 7 -7.6 0 0 0 0 1 4
2175 2 6.8 -7.4 0 0 0 0 1.0015 4
2176 2 7 -7.4 0 0 0 0 1.00158 4
2077 2 7.2 -7.8 0 0 0 0 1 4
2127 2 7.2 -7.6 0 0 0 0 1 4
2177 2 7.2 -7.4 0 0 0 0 1.00146 4
2078 2 7.4 -7.8 0 0 0 0 1 4
2079 2 7.6 -7.8 0 0 0 0 1 4
2128 2 7.4 -7.6 0 0 0 0 1 4
2129 2 7.6 -7.6 0 0 0 0 1 4
2178 2 7.4 -7.4 0 0 0 0 1.00157 4
2179 2 7.6 -7.4 0 0 0 0 1.00169 4
2080 2 7.8 -7.8 0 0 0 0 1 4
2081 2 8 -7.8 0 0 0 0 1 4
2130 2 7.8 -7.6 0 0 0 0 1 4
2131 2 8 -7.6 0 0 0 0 1 4
2180 2 7.8 -7.4 0 0 0 0 1.00153 4
2181 2 8 -7.4 0 0 0 0 1.00127 4
2082 2 8.2 -7.8 0 0 0 0 1 4
2083 2 8.4 -7.8 0 0 0 0 1 4
2132 2 8.2 -7.6 0 0 0 0 1 4
2133 2 8.4 -7.6 0 0 0 0 1 4
2182 2 8.2 -7.4 0 0 0 0 1.00135 4
2183 2 8.4 -7.4 0 0 0 0 1.00141 4
2084 2 8.6 -7.8 0 0 0 0 1 4
2085 2 8.8 -7.8 0 0 0 0 1 4
2134 2 8.6 -7.6 0 0 0 0 1 4
2135 2 8.8 -7.6 0 0 0 0 1 4
2184 2 8.6 -7.4 0 0 0 0 1.00141 4
2185 2 8.8 -7.4 0 0 0 0 1.00137 4
2086 2 9 -7.8 0 0 0 0 1 4
2087 2 9.2 -7.8 0 0 0 0 1 4
2136 2 9 -7.6 0 0 0 0 1 4
2137 2 9.2 -7.6 0 0 0 0 1 4
2186 2 9 -7.4 0 0 0 0 1.00144 4
2187 2 9.2 -7.4 0 0 0 0 1.00135 4
2088 2 9.4 -7.8 0 0 0 0 1 4
2089 2 9.6 -7.8 0 0 0 0 1 4
2138 2 9.4 -7.6 0 0 0 0 1 4
2139 2 9.6 -7.6 0 0 0 0 1 4
2188 2 9.4 -7.4 0 0 0 0 1.00136 4
2189 2 9.6 -7.4 0 0 0 0 1.00132 4
2090 2 9.8 -7.8 0 0 0 0 1 4
2140 2 9.8 -7.6 0 0 0 0 1 4
2190 2 9.8 -7.4 0 0 0 0 1.00131 4
2091 2 10 -7.8 0 0 0 0 1 4
2141 2 10 -7.6 0 0 0 0 1 4
2191 2 10 -7.4 0 0 0 0 1.00117 4
2092 2 10.2 -7.8 0 0 0 0 1 4
2142 2 10.2 -7.6 0 0 0 0 1 4
2192 2 10.2 -7.4 0 0 0 0 1.00128 4
2093 2 10.4 -7.8 0 0 0 0 1 4
2143 2 10.4 -7.6 0 0 0 0 1 4
2193 2 10.4 -7.4 0 0 0 0 1.00138 4
2094 2 10.6 -7.8 0 0 0 0 1 4
2144 2 10.6 -7.6 0 0 0 0 1 4
2194 2 10.6 -7.4 0 0 0 0 1.00113 4
2095 2 10.8 -7.8 0 0 0 0 1 4
2145 2 10.8 -7.6 0 0 0 0 1 4
2195 2 10.8 -7.4 0 0 0 0 1.00123 4
2201 2 2 -7.2 0 0 0 0 1.00007 4
2251 2 2 -7 0 0 0 0 1.00007 4
2202 2 2.2 -7.2 0 0 0 0 0.999967 4
2203 2 2.4 -7.2 0 0 0 0 0.999973 4
2252 2 2.2 -7 0 0 0 0 0.999975 4
2253 2 2.4 -7 0 0 0 0 0.999976 4
2204 2 2.6 -7.2 0 0 0 0 1 4
2205 2 2.8 -7.2 0 0 0 0 1 4
2254 2 2.6 -7 0 0 0 0 1 4
2255 2 2.8 -7 0 0 0 0 1 4
2206 2 3 -7.2 0 0 0 0 0.999996 4
2207 2 3.2 -7.2 0 0 0 0 0.999995 4
2256 2 3 -7 0 0 0 0 0.999996 4
2257 2 3.2 -7 0 0 0 0 0.999996 4
2208 2 3.4 -7.2 0 0 0 0 1.00001 4
2209 2 3.6 -7.2 0 0 0 0 1.00003 4
2258 2 3.4 -7 0 0 0 0 1.00001 4
2259 2 3.6 -7 0 0 0 0 1.00003 4
2210 2 3.8 -7.2 0 0 0 0 1.00027 4
2260 2 3.8 -7 0 0 0 0 1.00082 4
2211 2 4 -7.2 0 0 0 0 1.0029 4
2261 2 4 -7 0 0 0 0 1.00414 4
2212 2 4.2 -7.2 0 0 0 0 1.00679 4
2262 2 4.2 -7 0 0 0 0 1.007 4
2213 2 4.4 -7.2 0 0 0 0 1.00548 4
2214 2 4.6 -7.2 0 0 0 0 1.0035 4
2263 2 4.4 -7 0 0 0 0 1.00583 4
2264 2 4.6 -7 0 0 0 0 1.00393 4
2215 2 4.8 -7.2 0 0 0 0 1.00253 4
2216 2 5 -7.2 0 0 0 0 1.0024 4
2265 2 4.8 -7 0 0 0 0 1.00292 4
2266 2 5 -7 0 0 0 0 1.00267 4
2217 2 5.2 -7.2 0 0 0 0 1.00232 4
2218 2 5.4 -7.2 0 0 0 0 1.00225 4
2267 2 5.2 -7 0 0 0 0 1.00252 4
2268 2 5.4 -7 0 0 0 0 1.0024 4
2219 2 5.6 -7.2 0 0 0 0 1.00218 4
2220 2 5.8 -7.2 0 0 0 0 1.00201 4
2269 2 5.6 -7 0 0 0 0 1.00231 4
2270 2 5.8 -7 0 0 0 0 1.00213 4
2221 2 6 -7.2 0 0 0 0 1.00196 4
2222 2 6.2 -7.2 0 0 0 0 1.00193 4
2271 2 6 -7 0 0 0 0 1.00206 4
2272 2 6.2 -7 0 0 0 0 1.00202 4
2223 2 6.4 -7.2 0 0 0 0 1.00169 4
2224 2 6.6 -7.2 0 0 0 0 1.00162 4
2273 2 6.4 -7 0 0 0 0 1.00184 4
2274 2 6.6 -7 0 0 0 0 1.00176 4
2225 2 6.8 -7.2 0 0 0 0 1.00163 4
2226 2 7 -7.2 0 0 0 0 1.00165 4
2275 2 6.8 -7 0 0 0 0 1.00174 4
2276 2 7 -7 0 0 0 0 1.00172 4
2227 2 7.2 -7.2 0 0 0 0 1.00157 4
2277 2 7.2 -7 0 0 0 0 1.00165 4
2228 2 7.4 -7.2 0 0 0 0 1.00162 4
2229 2 7.6 -7.2 0 0 0 0 1.00165 4
2278 2 7.4 -7 0 0 0 0 1.00166 4
2279 2 7.6 -7 0 0 0 0 1.00166 4
2230 2 7.8 -7.2 0 0 0 0 1.00155 4
2231 2 8 -7.2 0 0 0 0 1.00145 4
2280 2 7.8 -7 0 0 0 0 1.00159 4
2281 2 8 -7 0 0 0 0 1.00153 4
2232 2 8.2 -7.2 0 0 0 0 1.00142 4
2233 2 8.4 -7.2 0 0 0 0 1.00147 4
2282 2 8.2 -7 0 0 0 0 1.0015 4
2283 2 8.4 -7 0 0 0 0 1.00153 4
2234 2 8.6 -7.2 0 0 0 0 1.00145 4
2235 2 8.8 -7.2 0 0 0 0 1.00144 4
2284 2 8.6 -7 0 0 0 0 1.00151 4
2285 2 8.8 -7 0 0 0 0 1.00149 4
2236 2 9 -7.2 0 0 0 0 1.00146 4
2237 2 9.2 -7.2 0 0 0 0 1.0014 4
2286 2 9 -7 0 0 0 0 1.00149 4
2287 2 9.2 -7 0 0 0 0 1.00145 4
2238 2 9.4 -7.2 0 0 0 0 1.00139 4
2239 2 9.6 -7.2 0 0 0 0 1.00136 4
2288 2 9.4 -7 0 0 0 0 1.00143 4
2289 2 9.6 -7 0 0 0 0 1.0014 4
2240 2 9.8 -7.2 0 0 0 0 1.00135 4
2290 2 9.8 -7 0 0 0 0 1.00137 4
2241 2 10 -7.2 0 0 0 0 1.00127 4
2291 2 10 -7 0 0 0 0 1.00132 4
2242 2 10.2 -7.2 0 0 0 0 1.00131 4
2292 2 10.2 -7 0 0 0 0 1.00133 4
2243 2 10.4 -7.2 0 0 0 0 1.00128 4
2293 2 10.4 -7 0 0 0 0 1.0013 4
2244 2 10.6 -7.2 0 0 0 0 1.00119 4
2294 2 10.6 -7 0 0 0 0 1.00125 4
2245 2 10.8 -7.2 0 0 0 0 1.00126 4
2295 2 10.8 -7 0 0 0 0 1.00129 4
14312 1 1.37579 -6.76109 0.02 0 0 0 1 1
14313 1 1.39612 -6.57974 0.02 0 0 0 1 1
14314 1 1.58666 -6.74254 0.02 0 0 0 1.00004 1
14316 1 1.61145 -6.56775 0.02 0 0 0 1 1
14315 1 1.79907 -6.7662 0.02 0 0 0 1.00015 1
14317 1 1.81712 -6.57957 0.02 0 0 0 1.00002 1
14318 1 2.02345 -6.76418 0.02 0 0 0 1 1
14320 1 2.02314 -6.58622 0.02 0 0 0 1.00001 1
14319 1 2.23622 -6.75047 0.02 0 0 0 0.999964 1
14321 1 2.23301 -6.5729 0.02 0 0 0 0.999995 1
14322 1 2.43865 -6.74763 0.02 0 0 0 0.999993 1
14323 1 2.44727 -6.56684 0.02 0 0 0 0.999999 1
14324 1 2.64174 -6.75299 0.02 0 0 0 1.00001 1
14325 1 2.84252 -6.73295 0.02 0 0 0 1 1
14326 1 2.65655 -6.57075 0.02 0 0 0 1 1
14327 1 2.86292 -6.55006 0.02 0 0 0 1 1
13985 1 3.24303 -6.73735 0.02 0 0 0 0.999993 1
13986 1 3.2528 -6.55221 0.02 0 0 0 1 1
14328 1 3.04136 -6.75624 0.02 0 0 0 0.999997 1
14329 1 3.05826 -6.56449 0.02 0 0 0 1 1
13987 1 3.44028 -6.76508 0.02 0 0 0 1.00001 1
13989 1 3.45014 -6.57061 0.02 0 0 0 1 1
13988 1 3.62593 -6.7155 0.02 0 0 0 1.00001 1
13990 1 3.65527 -6.53716 0.02 0 0 0 1.00001 1
13991 1 3.81596 -6.76146 0.02 0 0 0 1.00001 1
13992 1 4.00021 -6.75082 0.0183826 -5.39659e-05 -0.00646942 -0.000215864 1.00042 0
13993 1 3.84677 -6.56851 0.02 0 0 0 1.00005 1
13994 1 4.01414 -6.546 0.0169983 0.0018628 6.14423e-05 -1.69828e-05 1.00752 0
13995 1 4.13239 -6.71724 0.012848 0.00163111 0.000550395 0.000283614 1.00934 0
13996 1 4.2733 -6.71134 0.0109485 0.00113874 0.00013897 7.99353e-05 1.00897 0
13997 1 4.18048 -6.51119 0.0161603 0.00339688 6.93541e-05 3.11777e-05 1.00881 0
13998 1 4.34379 -6.48071 0.0161078 0.00345114 4.13805e-06 -3.17198e-05 1.00699 0
13999 1 4.41486 -6.6462 0.0119126 0.00173655 -2.59043e-05 -2.29562e-05 1.00612 0
14001 1 4.60233 -6.55513 0.0128349 0.00209793 -1.09895e-05 -2.10246e-05 1.00448 0
14002 1 4.52683 -6.75002 0.00734144 0.000657098 1.51211e-05 5.08472e-06 1.00504 0
14005 1 4.78244 -6.51124 0.0123931 0.00187768 -5.0657e-06 -1.53787e-05 1.00387 0
13631 1 4.69805 -6.74109 0.00645019 0.000538633 -9.99579e-07 -8.03286e-06 1.00381 0
13634 1 4.85952 -6.65737 0.0080318 0.000858509 -3.21654e-06 -9.38862e-06 1.00309 0
13638 1 4.97931 -6.75869 0.00466408 0.000244598 3.86996e-08 -5.29977e-06 1.00331 0
13642 1 5.11986 -6.65168 0.00687291 0.000615998 -2.04923e-06 -5.99076e-06 1.00286 0
13649 1 5.2848 -6.6529 0.00613938 0.000450049 -2.16359e-06 -4.14303e-06 1.0026 0
13272 1 5.58263 -6.60214 0.0063549 0.000493188 -3.35081e-06 -2.26169e-06 1.00243 0
13276 1 5.37668 -6.76466 0.00351688 0.00013437 -1.15641e-06 -1.9291e-06 1.00275 0
13280 1 5.76703 -6.54142 0.00706022 0.000541708 -4.27727e-06 -1.5683e-06 1.00236 0
12923 1 5.58194 -6.76336 0.00317943 0.000119989 -1.89305e-06 -9.50237e-07 1.00255 0
12927 1 5.79324 -6.72572 0.00350123 0.000143658 -2.62011e-06 -2.58537e-07 1.00228 0
12934 1 5.9885 -6.62471 0.00502105 0.000300447 -3.50431e-06 -2.67851e-07 1.00213 0
12585 1 6.05312 -6.76217 0.00263559 7.69921e-05 -1.90896e-06 1.99416e-07 1.00221 0
12943 1 6.38347 -6.57408 0.00520274 0.000270552 -1.97289e-06 -3.63075e-07 1.00199 0
12592 1 6.23771 -6.72896 0.00292857 5.47237e-05 -1.80228e-06 9.95e-08 1.00219 0
12248 1 6.44385 -6.72562 0.00275329 2.6574e-05 -9.18885e-07 -1.10062e-07 1.00197 0
12936 1 6.59319 -6.55191 0.00521471 0.000245367 -1.0555e-06 -6.5395e-07 1.00191 0
12254 1 6.78215 -6.62706 0.003882 0.00014342 -8.20701e-08 -7.07163e-07 1.00176 0
11919 1 6.62612 -6.76157 0.00218169 -2.11467e-05 -2.60426e-07 -3.20396e-07 1.00196 0
11924 1 6.99126 -6.59558 0.00410856 0.000152023 2.43069e-07 -8.7963e-07 1.00177 0
11538 1 6.8925 -6.77271 0.00193284 -8.46407e-06 3.19572e-07 -5.33536e-07 1.00186 0
12589 1 7.19708 -6.53695 0.00467216 0.000179435 1.35791e-07 -9.51535e-07 1.00173 0
11195 1 7.12331 -6.73326 0.00222594 1.5275e-05 4.10928e-07 -6.16517e-07 1.00179 0
11207 1 7.33619 -6.61783 0.0035124 0.000113474 9.69355e-08 -7.53697e-07 1.00166 0
10864 1 7.38829 -6.77356 0.00171367 1.48838e-05 2.5225e-07 -4.61323e-07 1.00173 0
10527 1 7.5817 -6.70131 0.00239203 4.89843e-05 -1.17412e-07 -4.1809e-07 1.00168 0
12240 1 7.50753 -6.53266 0.00443673 0.000163786 -2.70306e-07 -7.66486e-07 1.00169 0
11534 1 7.76664 -6.55101 0.00403741 0.000142749 -7.1341e-07 -4.97353e-07 1.00164 0
10538 1 7.76084 -6.72464 0.00205745 2.71588e-05 -2.73184e-07 -2.36944e-07 1.00166 0
10178 1 7.93466 -6.70894 0.00215554 8.94792e-06 -6.04684e-07 -1.23538e-07 1.00165 0
10185 1 8.11119 -6.70143 0.00215404 -3.46117e-06 -8.07594e-07 -2.34333e-08 1.00157 0
3109 1 8.43416 -6.62957 0.00283599 6.01009e-05 -1.13634e-06 6.39787e-08 1.00153 0
3116 1 8.27893 -6.77445 0.001476 -3.54823e-05 -7.08687e-07 8.9981e-08 1.00163 0
11550 1 8.25419 -6.53458 0.0039239 0.000101244 -1.36426e-06 -3.9041e-08 1.00155 0
3119 1 8.54429 -6.76564 0.0014877 -2.14779e-05 -7.35595e-07 1.41459e-07 1.00159 0
3113 1 8.7242 -6.63601 0.00266878 5.05342e-05 -1.03451e-06 1.38033e-07 1.00146 0
3123 1 8.832 -6.77236 0.00139505 -1.61699e-05 -6.26228e-07 1.35741e-07 1.00154 0
3117 1 8.95676 -6.59765 0.00299601 5.47845e-05 -9.79032e-07 1.46583e-07 1.00147 0
3121 1 9.20573 -6.56691 0.00323076 5.85364e-05 -8.34553e-07 1.25987e-07 1.00145 0
3124 1 9.06746 -6.73113 0.00168836 -8.2272e-06 -6.05123e-07 1.2171e-07 1.00152 0
3125 1 9.26603 -6.73588 0.00160795 -1.22749e-05 -4.92193e-07 1.01017e-07 1.00149 0
10521 1 9.41712 -6.54746 0.00335762 4.86695e-05 -6.93485e-07 1.16748e-07 1.00143 0
3126 1 9.45934 -6.72434 0.00168246 -1.62734e-05 -4.2395e-07 8.06725e-08 1.00147 0
10174 1 9.62289 -6.53886 0.00338955 4.01711e-05 -5.53345e-07 1.16167e-07 1.0014 0
3127 1 9.6444 -6.72923 0.0016198 -2.08204e-05 -3.57608e-07 7.28102e-08 1.00146 0
3105 1 9.81231 -6.54382 0.00330957 2.70834e-05 -4.40544e-07 1.18179e-07 1.00137 0
3128 1 9.83387 -6.73782 0.00152603 -2.01798e-05 -2.83053e-07 7.20738e-08 1.00143 0
3103 1 9.99782 -6.51923 0.00349252 1.8136e-05 -3.72309e-07 1.39828e-07 1.00134 0
3129 1 10.0286 -6.68719 0.00195663 -1.58736e-05 -2.74324e-07 1.03741e-07 1.00133 0
3131 1 10.1765 -6.76672 0.00130157 -2.55032e-05 -2.02065e-07 8.83336e-08 1.00137 0
3130 1 10.3524 -6.68455 0.00197295 -6.46293e-06 -1.84152e-07 1.1501e-07 1.00136 0
3132 1 10.5212 -6.69645 0.00182483 -2.5236e-05 -1.74235e-07 1.33919e-07 1.00128 0
3134 1 10.6737 -6.77044 0.00126227 -3.89919e-05 -1.27003e-07 1.30981e-07 1.00133 0
3167 1 10.7207 -6.51771 0.00339435 1.75499e-05 -5.36176e-08 2.36695e-07 1.00127 0
3133 1 10.8346 -6.62434 0.00244711 8.47455e-06 -5.49051e-08 2.09412e-07 1.00126 0
3135 1 10.9471 -6.7203 0.00160964 -1.04179e-05 -2.41593e-08 1.65312e-07 1.00127 0
14330 1 1.39777 -6.39966 0.02 0 0 0 1 1
14331 1 1.38401 -6.21768 0.02 0 0 0 1 1
14332 1 1.59952 -6.38993 0.02 0 0 0 1 1
14334 1 1.61286 -6.21074 0.02 0 0 0 1 1
14333 1 1.80794 -6.39446 0.02 0 0 0 1 1
14335 1 1.82833 -6.20884 0.02 0 0 0 1 1
14337 1 2.01879 -6.41096 0.02 0 0 0 1 1
14336 1 2.03553 -6.22944 0.02 0 0 0 1 1
14338 1 2.24101 -6.39878 0.02 0 0 0 1 1
14339 1 2.24343 -6.21988 0.02 0 0 0 1 1
14340 1 2.45845 -6.38951 0.02 0 0 0 1 1
14341 1 2.45457 -6.20844 0.02 0 0 0 1 1
14342 1 2.6707 -6.38875 0.02 0 0 0 1 1
14343 1 2.6591 -6.20064 0.02 0 0 0 1 1
14345 1 2.85634 -6.1728 0.02 0 0 0 1 1
14344 1 2.87645 -6.36308 0.02 0 0 0 1 1
14008 1 3.25329 -6.17382 0.02 0 0 0 1 1
14007 1 3.27394 -6.36404 0.02 0 0 0 1 1
14346 1 3.07713 -6.37007 0.02 0 0 0 1 1
14347 1 3.0541 -6.17393 0.02 0 0 0 1 1
14009 1 3.46416 -6.37826 0.02 0 0 0 1 1
14011 1 3.4522 -6.17653 0.02 0 0 0 1 1
14010 1 3.65354 -6.34872 0.02 0 0 0 1.00001 1
14012 1 3.64821 -6.15946 0.02 0 0 0 1.00001 1
14013 1 3.84637 -6.37218 0.02 0 0 0 1.00006 1
14015 1 3.84429 -6.17262 0.02 0 0 0 1.00005 1
14014 1 4.02043 -6.34668 0.0174843 0.00229142 8.9376e-06 -7.06047e-06 1.0075 0
14016 1 4.0243 -6.15085 0.0179432 0.0023665 8.20365e-06 -8.30316e-07 1.00665 0
14000 1 4.49298 -6.40289 0.0163756 0.00359255 -3.77828e-06 -2.37699e-05 1.00531 0
14017 1 4.19076 -6.31487 0.017492 0.00391402 1.7398e-05 -1.35274e-05 1.00751 0
14018 1 4.35758 -6.25949 0.0180931 0.00439097 7.63303e-06 -2.14843e-05 1.00587 0
14019 1 4.19998 -6.11528 0.018354 0.0040816 1.52063e-05 -6.37499e-06 1.00641 0
14020 1 4.3759 -6.05575 0.0189642 0.00474327 1.05579e-05 -9.92389e-06 1.00514 0
14021 1 4.52804 -6.19116 0.0181456 0.00448132 4.20279e-06 -1.71873e-05 1.00486 0
14024 1 4.55703 -5.99052 0.0190313 0.00496658 6.28898e-06 -9.05058e-06 1.00451 0
14003 1 4.65784 -6.34331 0.016122 0.00340539 -2.78813e-06 -1.89008e-05 1.00455 0
14004 1 4.82663 -6.32305 0.0152923 0.00294549 -3.41263e-06 -1.67775e-05 1.00417 0
14022 1 4.70338 -6.13755 0.017829 0.00431101 1.62444e-06 -1.50627e-05 1.00441 0
14023 1 4.87575 -6.11054 0.0172579 0.00396517 7.75469e-07 -1.27993e-05 1.00408 0
13633 1 4.99077 -6.50351 0.0111176 0.00149226 -3.99382e-06 -1.14208e-05 1.00346 0
14006 1 4.98706 -6.28859 0.0147723 0.00272026 -2.98333e-06 -1.38777e-05 1.00388 0
13632 1 5.14513 -6.19601 0.0150505 0.00284834 -1.61711e-06 -1.11299e-05 1.0036 0
14027 1 5.03395 -6.03906 0.0171237 0.00388813 1.48869e-06 -1.02359e-05 1.00375 0
13651 1 5.2109 -6.00528 0.0166358 0.00360666 9.20844e-07 -8.7658e-06 1.00343 0
13637 1 5.27171 -6.49344 0.00978273 0.00111857 -3.34511e-06 -7.05387e-06 1.00299 0
13635 1 5.14765 -6.38599 0.0123645 0.00181964 -3.46981e-06 -1.03402e-05 1.00343 0
13636 1 5.3205 -6.20167 0.0140965 0.0024254 -2.2537e-06 -8.73841e-06 1.00326 0