ITEM: TIMESTEP
86000
ITEM: NUMBER OF ATOMS
13463
ITEM: BOX BOUNDS ff ff pp
0.0000000000000000e+00 2.2000000000000000e+01
-1.0000000000000000e+01 1.0000000000000000e+01
-2.0000000000000000e-02 2.0000000000000000e-02
ITEM: ATOMS id type x y vx vy fx fy c_den c_phase
1501 2 2 -10 0 0 0 0 1 5
1535 2 2 -9.8 0 0 0 0 1 5
1569 2 2 -9.6 0 0 0 0 1 5
1502 2 2.2 -10 0 0 0 0 1 5
1503 2 2.4 -10 0 0 0 0 1 5
1536 2 2.2 -9.8 0 0 0 0 1 5
1537 2 2.4 -9.8 0 0 0 0 1 5
1570 2 2.2 -9.6 0 0 0 0 1 5
1571 2 2.4 -9.6 0 0 0 0 1 5
1504 2 2.6 -10 0 0 0 0 1 5
1505 2 2.8 -10 0 0 0 0 1 5
1538 2 2.6 -9.8 0 0 0 0 1 5
1539 2 2.8 -9.8 0 0 0 0 1 5
1572 2 2.6 -9.6 0 0 0 0 1 5
1573 2 2.8 -9.6 0 0 0 0 1 5
1506 2 3 -10 0 0 0 0 1 5
1540 2 3 -9.8 0 0 0 0 1 5
1574 2 3 -9.6 0 0 0 0 1 5
1507 2 3.2 -10 0 0 0 0 1 5
1541 2 3.2 -9.8 0 0 0 0 1 5
1575 2 3.2 -9.6 0 0 0 0 1 5
1508 2 3.4 -10 0 0 0 0 1 5
1542 2 3.4 -9.8 0 0 0 0 1 5
1576 2 3.4 -9.6 0 0 0 0 1 5
1509 2 3.6 -10 0 0 0 0 1 5
1543 2 3.6 -9.8 0 0 0 0 1 5
1577 2 3.6 -9.6 0 0 0 0 1 5
1510 2 3.8 -10 0 0 0 0 1 5
1544 2 3.8 -9.8 0 0 0 0 1 5
1578 2 3.8 -9.6 0 0 0 0 1 5
1511 2 4 -10 0 0 0 0 1 5
1512 2 4.2 -10 0 0 0 0 1 5
1545 2 4 -9.8 0 0 0 0 1 5
1546 2 4.2 -9.8 0 0 0 0 1 5
1579 2 4 -9.6 0 0 0 0 1 5
1580 2 4.2 -9.6 0 0 0 0 1 5
1513 2 4.4 -10 0 0 0 0 1 5
1514 2 4.6 -10 0 0 0 0 1 5
1547 2 4.4 -9.8 0 0 0 0 1 5
1548 2 4.6 -9.8 0 0 0 0 1 5
1581 2 4.4 -9.6 0 0 0 0 1 5
1582 2 4.6 -9.6 0 0 0 0 1 5
1515 2 4.8 -10 0 0 0 0 1 5
1516 2 5 -10 0 0 0 0 1 5
1549 2 4.8 -9.8 0 0 0 0 1 5
1550 2 5 -9.8 0 0 0 0 1 5
1583 2 4.8 -9.6 0 0 0 0 1 5
1584 2 5 -9.6 0 0 0 0 1 5
1517 2 5.2 -10 0 0 0 0 1 5
1518 2 5.4 -10 0 0 0 0 1 5
1551 2 5.2 -9.8 0 0 0 0 1 5
1552 2 5.4 -9.8 0 0 0 0 1 5
1585 2 5.2 -9.6 0 0 0 0 1 5
1586 2 5.4 -9.6 0 0 0 0 1 5
1519 2 5.6 -10 0 0 0 0 1 5
1553 2 5.6 -9.8 0 0 0 0 1 5
1587 2 5.6 -9.6 0 0 0 0 1 5
1520 2 5.8 -10 0 0 0 0 1 5
1554 2 5.8 -9.8 0 0 0 0 1 5
1588 2 5.8 -9.6 0 0 0 0 1 5
1521 2 6 -10 0 0 0 0 1 5
1555 2 6 -9.8 0 0 0 0 1 5
1589 2 6 -9.6 0 0 0 0 1 5
1522 2 6.2 -10 0 0 0 0 1 5
1523 2 6.4 -10 0 0 0 0 1 5
1556 2 6.2 -9.8 0 0 0 0 1 5
1557 2 6.4 -9.8 0 0 0 0 1 5
1590 2 6.2 -9.6 0 0 0 0 1 5
1591 2 6.4 -9.6 0 0 0 0 1 5
1524 2 6.6 -10 0 0 0 0 1 5
1525 2 6.8 -10 0 0 0 0 1 5
1558 2 6.6 -9.8 0 0 0 0 1 5
1559 2 6.8 -9.8 0 0 0 0 1 5
1592 2 6.6 -9.6 0 0 0 0 1 5
1593 2 6.8 -9.6 0 0 0 0 1 5
1526 2 7 -10 0 0 0 0 1 5
1527 2 7.2 -10 0 0 0 0 1 5
1560 2 7 -9.8 0 0 0 0 1 5
1561 2 7.2 -9.8 0 0 0 0 1 5
1594 2 7 -9.6 0 0 0 0 1 5
1595 2 7.2 -9.6 0 0 0 0 1 5
1603 2 2 -9.4 0 0 0 0 1 5
1637 2 2 -9.2 0 0 0 0 1 5
1604 2 2.2 -9.4 0 0 0 0 1 5
1605 2 2.4 -9.4 0 0 0 0 1 5
1638 2 2.2 -9.2 0 0 0 0 1 5
1639 2 2.4 -9.2 0 0 0 0 1 5
1606 2 2.6 -9.4 0 0 0 0 1 5
1607 2 2.8 -9.4 0 0 0 0 1 5
1640 2 2.6 -9.2 0 0 0 0 1 5
1641 2 2.8 -9.2 0 0 0 0 1 5
1608 2 3 -9.4 0 0 0 0 1 5
1642 2 3 -9.2 0 0 0 0 1 5
1609 2 3.2 -9.4 0 0 0 0 1 5
1643 2 3.2 -9.2 0 0 0 0 1 5
1610 2 3.4 -9.4 0 0 0 0 1 5
1644 2 3.4 -9.2 0 0 0 0 1 5
1611 2 3.6 -9.4 0 0 0 0 1 5
1645 2 3.6 -9.2 0 0 0 0 1 5
1612 2 3.8 -9.4 0 0 0 0 1 5
1646 2 3.8 -9.2 0 0 0 0 1 5
1613 2 4 -9.4 0 0 0 0 1 5
1614 2 4.2 -9.4 0 0 0 0 1 5
1647 2 4 -9.2 0 0 0 0 1 5
1648 2 4.2 -9.2 0 0 0 0 1 5
1615 2 4.4 -9.4 0 0 0 0 1 5
1616 2 4.6 -9.4 0 0 0 0 1 5
1649 2 4.4 -9.2 0 0 0 0 1 5
1650 2 4.6 -9.2 0 0 0 0 1 5
1617 2 4.8 -9.4 0 0 0 0 1 5
1618 2 5 -9.4 0 0 0 0 1 5
1651 2 4.8 -9.2 0 0 0 0 1 5
1652 2 5 -9.2 0 0 0 0 1 5
1619 2 5.2 -9.4 0 0 0 0 1 5
1620 2 5.4 -9.4 0 0 0 0 1 5
1653 2 5.2 -9.2 0 0 0 0 1 5
1654 2 5.4 -9.2 0 0 0 0 1 5
1621 2 5.6 -9.4 0 0 0 0 1 5
1655 2 5.6 -9.2 0 0 0 0 1 5
1622 2 5.8 -9.4 0 0 0 0 1 5
1656 2 5.8 -9.2 0 0 0 0 1 5
1623 2 6 -9.4 0 0 0 0 1 5
1657 2 6 -9.2 0 0 0 0 1 5
1624 2 6.2 -9.4 0 0 0 0 1 5
1625 2 6.4 -9.4 0 0 0 0 1 5
1658 2 6.2 -9.2 0 0 0 0 1 5
1659 2 6.4 -9.2 0 0 0 0 1 5
1626 2 6.6 -9.4 0 0 0 0 1 5
1627 2 6.8 -9.4 0 0 0 0 1 5
1660 2 6.6 -9.2 0 0 0 0 1 5
1661 2 6.8 -9.2 0 0 0 0 1 5
1628 2 7 -9.4 0 0 0 0 1 5
1629 2 7.2 -9.4 0 0 0 0 1 5
1662 2 7 -9.2 0 0 0 0 1 5
1663 2 7.2 -9.2 0 0 0 0 1 5
1671 2 2 -9 0 0 0 0 1 5
1705 2 2 -8.8 0 0 0 0 1 5
1672 2 2.2 -9 0 0 0 0 1 5
1673 2 2.4 -9 0 0 0 0 1 5
1706 2 2.2 -8.8 0 0 0 0 1 5
1707 2 2.4 -8.8 0 0 0 0 1 5
1674 2 2.6 -9 0 0 0 0 1 5
1675 2 2.8 -9 0 0 0 0 1 5
1708 2 2.6 -8.8 0 0 0 0 1 5
1709 2 2.8 -8.8 0 0 0 0 1 5
1676 2 3 -9 0 0 0 0 1 5
1710 2 3 -8.8 0 0 0 0 1 5
1677 2 3.2 -9 0 0 0 0 1 5
1711 2 3.2 -8.8 0 0 0 0 1 5
1678 2 3.4 -9 0 0 0 0 1 5
1712 2 3.4 -8.8 0 0 0 0 1 5
1679 2 3.6 -9 0 0 0 0 1 5
1713 2 3.6 -8.8 0 0 0 0 1 5
1680 2 3.8 -9 0 0 0 0 1 5
1714 2 3.8 -8.8 0 0 0 0 1 5
1681 2 4 -9 0 0 0 0 1 5
1682 2 4.2 -9 0 0 0 0 1 5
1715 2 4 -8.8 0 0 0 0 1 5
1716 2 4.2 -8.8 0 0 0 0 1 5
1683 2 4.4 -9 0 0 0 0 1 5
1684 2 4.6 -9 0 0 0 0 1 5
1717 2 4.4 -8.8 0 0 0 0 1 5
1718 2 4.6 -8.8 0 0 0 0 1 5
1685 2 4.8 -9 0 0 0 0 1 5
1686 2 5 -9 0 0 0 0 1 5
1719 2 4.8 -8.8 0 0 0 0 1 5
1720 2 5 -8.8 0 0 0 0 1 5
1687 2 5.2 -9 0 0 0 0 1 5
1688 2 5.4 -9 0 0 0 0 1 5
1721 2 5.2 -8.8 0 0 0 0 1 5
1722 2 5.4 -8.8 0 0 0 0 1 5
1689 2 5.6 -9 0 0 0 0 1 5
1723 2 5.6 -8.8 0 0 0 0 1 5
1690 2 5.8 -9 0 0 0 0 1 5
1724 2 5.8 -8.8 0 0 0 0 1 5
1691 2 6 -9 0 0 0 0 1 5
1725 2 6 -8.8 0 0 0 0 1 5
1692 2 6.2 -9 0 0 0 0 1 5
1693 2 6.4 -9 0 0 0 0 1 5
1726 2 6.2 -8.8 0 0 0 0 1 5
1727 2 6.4 -8.8 0 0 0 0 1 5
1694 2 6.6 -9 0 0 0 0 1 5
1695 2 6.8 -9 0 0 0 0 1 5
1728 2 6.6 -8.8 0 0 0 0 1 5
1729 2 6.8 -8.8 0 0 0 0 1 5
1696 2 7 -9 0 0 0 0 1 5
1697 2 7.2 -9 0 0 0 0 1 5
1730 2 7 -8.8 0 0 0 0 1 5
1731 2 7.2 -8.8 0 0 0 0 1 5
1739 2 2 -8.6 0 0 0 0 1 5
1773 2 2 -8.4 0 0 0 0 1 5
1740 2 2.2 -8.6 0 0 0 0 1 5
1741 2 2.4 -8.6 0 0 0 0 1 5
1774 2 2.2 -8.4 0 0 0 0 1 5
1775 2 2.4 -8.4 0 0 0 0 1 5
1742 2 2.6 -8.6 0 0 0 0 1 5
1743 2 2.8 -8.6 0 0 0 0 1 5
1776 2 2.6 -8.4 0 0 0 0 1 5
1777 2 2.8 -8.4 0 0 0 0 1 5
1744 2 3 -8.6 0 0 0 0 1 5
1778 2 3 -8.4 0 0 0 0 1 5
1745 2 3.2 -8.6 0 0 0 0 1 5
1779 2 3.2 -8.4 0 0 0 0 1 5
1746 2 3.4 -8.6 0 0 0 0 1 5
1780 2 3.4 -8.4 0 0 0 0 1 5
1747 2 3.6 -8.6 0 0 0 0 1 5
1781 2 3.6 -8.4 0 0 0 0 1 5
1748 2 3.8 -8.6 0 0 0 0 1 5
1782 2 3.8 -8.4 0 0 0 0 1 5
1749 2 4 -8.6 0 0 0 0 1 5
1750 2 4.2 -8.6 0 0 0 0 1 5
1783 2 4 -8.4 0 0 0 0 1 5
1784 2 4.2 -8.4 0 0 0 0 1 5
1751 2 4.4 -8.6 0 0 0 0 1 5
1752 2 4.6 -8.6 0 0 0 0 1 5
1785 2 4.4 -8.4 0 0 0 0 1 5
1786 2 4.6 -8.4 0 0 0 0 1 5
1753 2 4.8 -8.6 0 0 0 0 1 5
1754 2 5 -8.6 0 0 0 0 1 5
1787 2 4.8 -8.4 0 0 0 0 1 5
1788 2 5 -8.4 0 0 0 0 1 5
1755 2 5.2 -8.6 0 0 0 0 1 5
1756 2 5.4 -8.6 0 0 0 0 1 5
1789 2 5.2 -8.4 0 0 0 0 1 5
1790 2 5.4 -8.4 0 0 0 0 1 5
1757 2 5.6 -8.6 0 0 0 0 1 5
1791 2 5.6 -8.4 0 0 0 0 1 5
1758 2 5.8 -8.6 0 0 0 0 1 5
1792 2 5.8 -8.4 0 0 0 0 1 5
1759 2 6 -8.6 0 0 0 0 1 5
1793 2 6 -8.4 0 0 0 0 1 5
1760 2 6.2 -8.6 0 0 0 0 1 5
1761 2 6.4 -8.6 0 0 0 0 1 5
1794 2 6.2 -8.4 0 0 0 0 1 5
1795 2 6.4 -8.4 0 0 0 0 1 5
1762 2 6.6 -8.6 0 0 0 0 1 5
1763 2 6.8 -8.6 0 0 0 0 1 5
1796 2 6.6 -8.4 0 0 0 0 1 5
1797 2 6.8 -8.4 0 0 0 0 1 5
1764 2 7 -8.6 0 0 0 0 1 5
1765 2 7.2 -8.6 0 0 0 0 1 5
1798 2 7 -8.4 0 0 0 0 1 5
1799 2 7.2 -8.4 0 0 0 0 1 5
1807 2 2 -8.2 0 0 0 0 1 5
1841 2 2 -8 0 0 0 0 1 5
1808 2 2.2 -8.2 0 0 0 0 1 5
1809 2 2.4 -8.2 0 0 0 0 1 5
1842 2 2.2 -8 0 0 0 0 1 5
1843 2 2.4 -8 0 0 0 0 1 5
1810 2 2.6 -8.2 0 0 0 0 1 5
1811 2 2.8 -8.2 0 0 0 0 1 5
1844 2 2.6 -8 0 0 0 0 1 5
1845 2 2.8 -8 0 0 0 0 1 5
1812 2 3 -8.2 0 0 0 0 1 5
1846 2 3 -8 0 0 0 0 1 5
1813 2 3.2 -8.2 0 0 0 0 1 5
1847 2 3.2 -8 0 0 0 0 1 5
1814 2 3.4 -8.2 0 0 0 0 1 5
1848 2 3.4 -8 0 0 0 0 1 5
1815 2 3.6 -8.2 0 0 0 0 1 5
1849 2 3.6 -8 0 0 0 0 1 5
1816 2 3.8 -8.2 0 0 0 0 1 5
1850 2 3.8 -8 0 0 0 0 1 5
1817 2 4 -8.2 0 0 0 0 1 5
1818 2 4.2 -8.2 0 0 0 0 1 5
1851 2 4 -8 0 0 0 0 1 5
1852 2 4.2 -8 0 0 0 0 1 5
1819 2 4.4 -8.2 0 0 0 0 1 5
1820 2 4.6 -8.2 0 0 0 0 1 5
1853 2 4.4 -8 0 0 0 0 1 5
1854 2 4.6 -8 0 0 0 0 1 5
1821 2 4.8 -8.2 0 0 0 0 1 5
1822 2 5 -8.2 0 0 0 0 1 5
1855 2 4.8 -8 0 0 0 0 1 5
1856 2 5 -8 0 0 0 0 1 5
1823 2 5.2 -8.2 0 0 0 0 1 5
1824 2 5.4 -8.2 0 0 0 0 1 5
1857 2 5.2 -8 0 0 0 0 1 5
1858 2 5.4 -8 0 0 0 0 1 5
1825 2 5.6 -8.2 0 0 0 0 1 5
1859 2 5.6 -8 0 0 0 0 1 5
1826 2 5.8 -8.2 0 0 0 0 1 5
1860 2 5.8 -8 0 0 0 0 1 5
1827 2 6 -8.2 0 0 0 0 1 5
1861 2 6 -8 0 0 0 0 1 5
1828 2 6.2 -8.2 0 0 0 0 1 5
1829 2 6.4 -8.2 0 0 0 0 1 5
1862 2 6.2 -8 0 0 0 0 1 5
1863 2 6.4 -8 0 0 0 0 1 5
1830 2 6.6 -8.2 0 0 0 0 1 5
1831 2 6.8 -8.2 0 0 0 0 1 5
1864 2 6.6 -8 0 0 0 0 1 5
1865 2 6.8 -8 0 0 0 0 1 5
1832 2 7 -8.2 0 0 0 0 1 5
1833 2 7.2 -8.2 0 0 0 0 1 5
1866 2 7 -8 0 0 0 0 1 5
1867 2 7.2 -8 0 0 0 0 1 5
1875 2 2 -7.8 0 0 0 0 1 5
1909 2 2 -7.6 0 0 0 0 1 5
1943 2 2 -7.4 0 0 0 0 1.0008 5
1876 2 2.2 -7.8 0 0 0 0 1 5
1877 2 2.4 -7.8 0 0 0 0 1 5
1910 2 2.2 -7.6 0 0 0 0 1 5
1911 2 2.4 -7.6 0 0 0 0 1 5
1944 2 2.2 -7.4 0 0 0 0 0.999547 5
1945 2 2.4 -7.4 0 0 0 0 1.00088 5
1878 2 2.6 -7.8 0 0 0 0 1 5
1879 2 2.8 -7.8 0 0 0 0 1 5
1912 2 2.6 -7.6 0 0 0 0 1 5
1913 2 2.8 -7.6 0 0 0 0 1 5
1946 2 2.6 -7.4 0 0 0 0 1.00067 5
1947 2 2.8 -7.4 0 0 0 0 0.998262 5
1880 2 3 -7.8 0 0 0 0 1 5
1914 2 3 -7.6 0 0 0 0 1 5
1948 2 3 -7.4 0 0 0 0 0.999122 5
1881 2 3.2 -7.8 0 0 0 0 1 5
1915 2 3.2 -7.6 0 0 0 0 1 5
1949 2 3.2 -7.4 0 0 0 0 1.00202 5
1882 2 3.4 -7.8 0 0 0 0 1 5
1916 2 3.4 -7.6 0 0 0 0 1 5
1950 2 3.4 -7.4 0 0 0 0 1.00006 5
1883 2 3.6 -7.8 0 0 0 0 1 5
1917 2 3.6 -7.6 0 0 0 0 1 5
1951 2 3.6 -7.4 0 0 0 0 1.0019 5
1884 2 3.8 -7.8 0 0 0 0 1 5
1918 2 3.8 -7.6 0 0 0 0 1 5
1952 2 3.8 -7.4 0 0 0 0 1.03163 5
1885 2 4 -7.8 0 0 0 0 1 5
1886 2 4.2 -7.8 0 0 0 0 1 5
1919 2 4 -7.6 0 0 0 0 1 5
1920 2 4.2 -7.6 0 0 0 0 1 5
1953 2 4 -7.4 0 0 0 0 1.04373 5
1954 2 4.2 -7.4 0 0 0 0 1.05563 5
1887 2 4.4 -7.8 0 0 0 0 1 5
1888 2 4.6 -7.8 0 0 0 0 1 5
1921 2 4.4 -7.6 0 0 0 0 1 5
1922 2 4.6 -7.6 0 0 0 0 1 5
1955 2 4.4 -7.4 0 0 0 0 1.04592 5
1956 2 4.6 -7.4 0 0 0 0 1.04429 5
1889 2 4.8 -7.8 0 0 0 0 1 5
1890 2 5 -7.8 0 0 0 0 1 5
1923 2 4.8 -7.6 0 0 0 0 1 5
1924 2 5 -7.6 0 0 0 0 1 5
1957 2 4.8 -7.4 0 0 0 0 1.04385 5
1958 2 5 -7.4 0 0 0 0 1.0434 5
1891 2 5.2 -7.8 0 0 0 0 1 5
1892 2 5.4 -7.8 0 0 0 0 1 5
1925 2 5.2 -7.6 0 0 0 0 1 5
1926 2 5.4 -7.6 0 0 0 0 1 5
1959 2 5.2 -7.4 0 0 0 0 1.04332 5
1960 2 5.4 -7.4 0 0 0 0 1.04328 5
1893 2 5.6 -7.8 0 0 0 0 1 5
1927 2 5.6 -7.6 0 0 0 0 1 5
1961 2 5.6 -7.4 0 0 0 0 1.04309 5
1894 2 5.8 -7.8 0 0 0 0 1 5
1928 2 5.8 -7.6 0 0 0 0 1 5
1962 2 5.8 -7.4 0 0 0 0 1.04295 5
1895 2 6 -7.8 0 0 0 0 1 5
1929 2 6 -7.6 0 0 0 0 1 5
1963 2 6 -7.4 0 0 0 0 1.04279 5
1896 2 6.2 -7.8 0 0 0 0 1 5
1897 2 6.4 -7.8 0 0 0 0 1 5
1930 2 6.2 -7.6 0 0 0 0 1 5
1931 2 6.4 -7.6 0 0 0 0 1 5
1964 2 6.2 -7.4 0 0 0 0 1.04303 5
1965 2 6.4 -7.4 0 0 0 0 1.04309 5
1898 2 6.6 -7.8 0 0 0 0 1 5
1899 2 6.8 -7.8 0 0 0 0 1 5
1932 2 6.6 -7.6 0 0 0 0 1 5
1933 2 6.8 -7.6 0 0 0 0 1 5
1966 2 6.6 -7.4 0 0 0 0 1.04305 5
1967 2 6.8 -7.4 0 0 0 0 1.04297 5
1900 2 7 -7.8 0 0 0 0 1 5
1901 2 7.2 -7.8 0 0 0 0 1 5
1934 2 7 -7.6 0 0 0 0 1 5
1935 2 7.2 -7.6 0 0 0 0 1 5
1968 2 7 -7.4 0 0 0 0 1.04298 5
1969 2 7.2 -7.4 0 0 0 0 1.04283 5
1977 2 2 -7.2 0 0 0 0 1.00174 5
2011 2 2 -7 0 0 0 0 1.0017 5
1978 2 2.2 -7.2 0 0 0 0 1.00032 5
1979 2 2.4 -7.2 0 0 0 0 1.00058 5
2012 2 2.2 -7 0 0 0 0 1.00002 5
2013 2 2.4 -7 0 0 0 0 0.99994 5
1980 2 2.6 -7.2 0 0 0 0 1.00003 5
1981 2 2.8 -7.2 0 0 0 0 0.998204 5
2014 2 2.6 -7 0 0 0 0 0.999865 5
2015 2 2.8 -7 0 0 0 0 0.999149 5
1982 2 3 -7.2 0 0 0 0 0.999437 5
2016 2 3 -7 0 0 0 0 0.999806 5
1983 2 3.2 -7.2 0 0 0 0 1.00036 5
2017 2 3.2 -7 0 0 0 0 1.00028 5
1984 2 3.4 -7.2 0 0 0 0 0.999829 5
2018 2 3.4 -7 0 0 0 0 1.0003 5
1985 2 3.6 -7.2 0 0 0 0 1.00484 5
2019 2 3.6 -7 0 0 0 0 1.00523 5
1986 2 3.8 -7.2 0 0 0 0 1.02757 5
2020 2 3.8 -7 0 0 0 0 1.02399 5
1987 2 4 -7.2 0 0 0 0 1.04023 5
1988 2 4.2 -7.2 0 0 0 0 1.04816 5
2021 2 4 -7 0 0 0 0 1.03644 5
2022 2 4.2 -7 0 0 0 0 1.04499 5
1989 2 4.4 -7.2 0 0 0 0 1.04898 5
1990 2 4.6 -7.2 0 0 0 0 1.0462 5
2023 2 4.4 -7 0 0 0 0 1.05014 5
2024 2 4.6 -7 0 0 0 0 1.04765 5
1991 2 4.8 -7.2 0 0 0 0 1.045 5
1992 2 5 -7.2 0 0 0 0 1.04454 5
2025 2 4.8 -7 0 0 0 0 1.04595 5
2026 2 5 -7 0 0 0 0 1.04545 5
1993 2 5.2 -7.2 0 0 0 0 1.04453 5
1994 2 5.4 -7.2 0 0 0 0 1.04445 5
2027 2 5.2 -7 0 0 0 0 1.04551 5
2028 2 5.4 -7 0 0 0 0 1.04539 5
1995 2 5.6 -7.2 0 0 0 0 1.0443 5
2029 2 5.6 -7 0 0 0 0 1.04518 5
1996 2 5.8 -7.2 0 0 0 0 1.04409 5
2030 2 5.8 -7 0 0 0 0 1.04495 5
1997 2 6 -7.2 0 0 0 0 1.04398 5
2031 2 6 -7 0 0 0 0 1.04475 5
1998 2 6.2 -7.2 0 0 0 0 1.04395 5
1999 2 6.4 -7.2 0 0 0 0 1.04402 5
2032 2 6.2 -7 0 0 0 0 1.0447 5
2033 2 6.4 -7 0 0 0 0 1.04482 5
2000 2 6.6 -7.2 0 0 0 0 1.04404 5
2001 2 6.8 -7.2 0 0 0 0 1.04399 5
2034 2 6.6 -7 0 0 0 0 1.04484 5
2035 2 6.8 -7 0 0 0 0 1.04477 5
2002 2 7 -7.2 0 0 0 0 1.04391 5
2003 2 7.2 -7.2 0 0 0 0 1.04385 5
2036 2 7 -7 0 0 0 0 1.04469 5
2037 2 7.2 -7 0 0 0 0 1.04467 5
16067 1 0.585728 -6.74459 0.02 0 0 0 1 2
16068 1 0.787558 -6.76349 0.02 0 0 0 1 2
16069 1 0.619474 -6.57221 0.02 0 0 0 1 2
16070 1 0.824265 -6.57855 0.02 0 0 0 1 2
16071 1 1.00071 -6.76677 0.02 0 0 0 1 2
16072 1 1.20499 -6.74921 0.02 0 0 0 1 2
16073 1 1.02268 -6.57855 0.02 0 0 0 1 2
16074 1 1.21786 -6.55859 0.02 0 -7.39977e-14 -2.47966e-14 1 2
16075 1 1.3949 -6.7407 0.02 0 -6.03076e-07 -3.55113e-07 1 2
16076 1 1.58986 -6.76847 0.02 0 -0.000271112 -0.000139522 1 2
16077 1 1.41975 -6.56058 0.02 0 -5.91794e-12 5.08622e-09 1 2
16078 1 1.61268 -6.576 0.02 0 -1.88444e-06 3.3444e-05 1 2
16079 1 1.79368 -6.74592 0.02 0 -0.00201259 -0.0004929 1 2
16080 1 1.99166 -6.74089 0.02 0 -0.0033578 -0.000559544 1 2
16081 1 1.79751 -6.55361 0.02 0 -2.76113e-05 6.10063e-05 1 2
16082 1 1.98954 -6.56055 0.02 0 1.61795e-05 0.000226138 1 2
15600 1 2.42318 -6.58073 0.02 0 9.79623e-05 0.000555818 1 2
16083 1 2.18797 -6.75367 0.02 0 -0.00323164 -0.000503286 1 2
16084 1 2.39076 -6.75368 0.02 0 -0.00283684 -0.000612549 1 2
16085 1 2.20085 -6.5699 0.02 0 0.000123151 0.000450091 1 2
15599 1 2.61134 -6.76992 0.02 0 -0.00307294 -0.00053091 1 2
15601 1 2.63438 -6.58688 0.02 0 -6.04826e-05 0.000400169 1 2
15602 1 2.83028 -6.75274 0.02 0 -0.00275765 -0.000430952 1 2
15604 1 2.83801 -6.56746 0.02 0 5.05635e-05 0.00030865 1 2
15603 1 3.0396 -6.73947 0.02 0 -0.00253749 -0.000407685 1 2
15605 1 3.03634 -6.55685 0.02 0 0.000142316 0.000304247 1 2
15754 1 3.23809 -6.74787 0.02 0 -0.00287257 -0.000377946 1 2
15756 1 3.2365 -6.55697 0.02 0 0.000178172 0.000345993 1 2
15755 1 3.43089 -6.7403 0.02 0 -0.00276272 -0.000245592 1 2
15757 1 3.43991 -6.5555 0.02 0 0.000156891 0.000428653 1 2
15758 1 3.62488 -6.74105 0.02 0 -0.00444377 0.000199057 1 2
15760 1 3.65064 -6.56028 0.02 0 -0.00135988 0.000686472 1 2
15759 1 3.82568 -6.75011 0.02 0 -0.0100564 0.00054925 1 2
15761 1 3.85906 -6.56898 0.02 0 -0.00553083 0.000982805 1 2
15762 1 4.00039 -6.76902 0.0161898 -7.65694e-05 -0.0152408 -0.000306278 1.03879 0
15764 1 3.99934 -6.57723 0.02 0 -0.00482884 0.000845584 1.0352 2
15763 1 4.12744 -6.70188 0.00801311 0.00220563 0.000468643 0.000462799 1.05187 0
15765 1 4.12656 -6.50919 0.0110299 0.00315099 -0.000245667 0.000112274 1.05315 0
15347 1 4.22943 -6.66866 0.00816597 0.00177082 0.000202506 0.000252717 1.05477 0
15350 1 4.28032 -6.52628 0.0107172 0.00342761 -1.69102e-05 8.56758e-05 1.05481 0
15348 1 4.32453 -6.70837 0.00666106 0.000146172 0.000148242 6.0948e-05 1.054 0
15349 1 4.4504 -6.57779 0.0104848 0.00205807 3.14019e-05 1.29136e-05 1.04859 0
15363 1 4.00019 -6.64305 0.0176781 0.000313625 -0.00928771 0.0012545 1.0375 0
15362 1 4.00028 -6.85032 -0.000238927 -0.000722992 0.000170394 3.26732e-06 1.04919 0
15353 1 4.45376 -6.72543 0.00631289 0.000135403 3.67507e-05 3.21175e-06 1.04962 0
15354 1 4.61493 -6.54421 0.0103156 0.00210589 1.33732e-05 -2.91066e-07 1.04566 0
15357 1 4.66034 -6.655 0.00737036 0.00109072 7.96389e-06 -1.61179e-06 1.04549 0
14630 1 4.55703 -6.81241 0.00420477 -0.00071892 -1.87628e-06 -1.82929e-06 1.05026 0
15361 1 4.80323 -6.60699 0.00761184 0.00125073 8.09628e-06 -2.19015e-06 1.04496 0
15011 1 4.75376 -6.78762 0.00378484 -0.000291556 -3.05694e-07 -1.17072e-06 1.04781 0
15365 1 4.95492 -6.542 0.00791026 0.00137897 1.20037e-05 -1.75132e-06 1.04513 0
15366 1 5.07626 -6.55381 0.007033 0.0011256 1.21306e-05 -1.84944e-06 1.04501 0
15019 1 4.91234 -6.70924 0.00452289 0.000402883 4.19761e-06 -1.58591e-06 1.04536 0
15015 1 5.18051 -6.6262 0.00515619 0.000636093 9.86185e-06 -1.82262e-06 1.04481 0
14789 1 5.02999 -6.76868 0.0029025 -0.000360467 3.09686e-06 -1.24823e-06 1.04685 0
14793 1 5.18557 -6.78412 0.00235349 -0.000560771 4.07747e-06 -1.17141e-06 1.04718 0
15023 1 5.31772 -6.58922 0.00543772 0.000693467 1.09862e-05 -2.4592e-06 1.04448 0
15026 1 5.44656 -6.60548 0.00477277 0.000552933 1.00635e-05 -2.82379e-06 1.04424 0
14631 1 5.59916 -6.50536 0.00593263 0.000778161 1.09836e-05 -3.80715e-06 1.04411 0
14324 1 5.35758 -6.76856 0.00229809 -0.000408204 4.73375e-06 -1.49284e-06 1.0464 0
14317 1 5.58971 -6.64926 0.00369859 0.000351749 8.05904e-06 -2.95805e-06 1.04416 0
13971 1 5.53329 -6.80193 0.00178344 -0.000668498 4.10464e-06 -1.68976e-06 1.04685 0
13969 1 5.74207 -6.59858 0.00423002 0.000466747 7.93702e-06 -3.76774e-06 1.04387 0
14790 1 5.89028 -6.61867 0.00367057 0.000365228 6.05285e-06 -3.72041e-06 1.04384 0
13644 1 5.72651 -6.76944 0.00191862 -0.000404444 4.10111e-06 -2.17464e-06 1.04584 0
14320 1 6.03481 -6.58042 0.00401458 0.000420927 4.7847e-06 -4.20072e-06 1.04371 0
13274 1 5.89299 -6.79309 0.00156388 -0.000658201 3.01675e-06 -1.93656e-06 1.04638 0
13289 1 6.05223 -6.73911 0.0019754 -0.000213982 2.76324e-06 -2.53002e-06 1.04499 0
13979 1 6.1723 -6.58543 0.00376232 0.000394538 3.05749e-06 -4.11277e-06 1.04364 0
13975 1 6.30068 -6.58439 0.00365653 0.000398378 1.41915e-06 -3.98469e-06 1.04358 0
12949 1 6.19956 -6.77399 0.00150239 -0.000498721 1.44855e-06 -1.85204e-06 1.04576 0
13983 1 6.41789 -6.60617 0.00327152 0.000354611 5.06381e-08 -3.54807e-06 1.04356 0
13641 1 6.5354 -6.60087 0.00324159 0.000351251 -1.1639e-06 -3.30808e-06 1.04351 0
12617 1 6.36316 -6.78709 0.00133551 -0.000555172 2.67549e-07 -1.38099e-06 1.04595 0
13276 1 6.65831 -6.6333 0.00275928 0.000275091 -2.09924e-06 -2.54911e-06 1.04355 0
11882 1 6.55305 -6.79615 0.00124106 -0.000576384 -9.68864e-07 -8.41418e-07 1.04601 0
12936 1 6.79808 -6.63417 0.0026673 0.000254076 -3.09044e-06 -2.06769e-06 1.04352 0
12953 1 6.93938 -6.62133 0.00275953 0.000256799 -3.9864e-06 -1.69249e-06 1.04344 0
11552 1 6.75887 -6.80389 0.00114125 -0.000626348 -2.02308e-06 -2.71392e-07 1.04606 0
11164 1 6.96278 -6.78525 0.0012131 -0.000509203 -2.96786e-06 2.17333e-08 1.04562 0
12604 1 7.08317 -6.61463 0.00279194 0.000246125 -4.53819e-06 -1.28333e-06 1.0434 0
12941 1 7.22211 -6.61727 0.00274184 0.00021617 -4.74355e-06 -8.74767e-07 1.04341 0
14871 1 5.82751 -0.112083 0.0127029 -5.63902e-05 -2.07885e-05 -1.30313e-05 1.04422 0
11323 1 7.15005 -6.79778 0.00111737 -0.000649307 -3.40755e-06 5.42612e-07 1.04591 0
14875 1 5.44645 -0.0527976 0.0126721 -6.63237e-05 -2.34609e-05 -1.41988e-05 1.04401 0
16086 1 0.577463 -6.40575 0.02 0 0 0 1 2
16087 1 0.801483 -6.39862 0.02 0 0 0 1 2
16088 1 0.598846 -6.22649 0.02 0 0 0 1 2
16089 1 0.816962 -6.21801 0.02 0 0 0 1 2
16090 1 1.00749 -6.38915 0.02 0 0 0 1 2
16091 1 1.20551 -6.36834 0.02 0 0 0 1 2
16092 1 1.02266 -6.18855 0.02 0 0 0 1 2
16093 1 1.22627 -6.18143 0.02 0 0 0 1 2
16094 1 1.41061 -6.38259 0.02 0 2.37488e-11 5.00807e-10 1 2
16095 1 1.62428 -6.38716 0.02 0 4.65364e-07 5.13397e-06 1 2
16096 1 1.43347 -6.20222 0.02 0 2.03798e-12 2.84946e-11 1 2
16097 1 1.6422 -6.20607 0.02 0 1.73107e-08 1.98983e-07 1 2
16098 1 1.84448 -6.37166 0.02 0 1.11404e-05 5.34957e-05 1 2
16099 1 2.05685 -6.38884 0.02 0 6.66777e-05 0.000179704 1 2
16100 1 1.85084 -6.19175 0.02 0 4.57996e-07 3.10637e-06 1 2
16101 1 2.06961 -6.20482 0.02 0 4.35575e-06 1.59393e-05 1 2
15606 1 2.4587 -6.40681 0.02 0 0.000126795 0.000228833 1 2
15607 1 2.48518 -6.22242 0.02 0 1.06907e-05 2.58622e-05 1 2
16102 1 2.25976 -6.38994 0.02 0 0.000107555 0.0002176 1 2
16103 1 2.28175 -6.19657 0.02 0 6.85165e-06 1.83638e-05 1 2
15608 1 2.66334 -6.40373 0.02 0 0.000114107 0.00019055 1 2
15609 1 2.69303 -6.21248 0.02 0 8.83892e-06 2.18627e-05 1 2
15610 1 2.8666 -6.37967 0.02 0 9.12398e-05 0.000147675 1 2
15611 1 2.90528 -6.19565 0.02 0 6.84432e-06 1.73821e-05 1 2
15769 1 3.12365 -6.19087 0.02 0 6.5714e-06 1.66149e-05 1 2
15770 1 3.07236 -6.37223 0.02 0 8.42093e-05 0.000142667 1 2
15766 1 3.27787 -6.36827 0.02 0 8.24106e-05 0.000145376 1 2
15768 1 3.33921 -6.18388 0.02 0 5.7912e-06 1.4338e-05 1 2
15767 1 3.48363 -6.37473 0.02 0 3.04073e-06 0.000164134 1 2
15771 1 3.54465 -6.19169 0.02 0 -0.000248495 3.36268e-05 1 2
15772 1 3.68975 -6.37712 0.02 0 -0.00190999 0.000240833 1 2
15774 1 3.73987 -6.18031 0.02 0 -0.00281318 0.000124081 1 2
15773 1 3.88653 -6.38113 0.02 0 -0.00622515 0.000420924 1 2
15775 1 3.92967 -6.18345 0.02 0 -0.00787138 0.000225742 1 2
15776 1 3.99986 -6.38669 0.02 0 -0.00788245 0.000806839 1.03657 2
15778 1 4.00007 -6.21589 0.0178542 0.000190952 -0.00858337 0.000763807 1.03527 0
15777 1 3.9996 -6.42129 0.02 0 -0.00480404 0.000644584 1.03697 2
15351 1 4.4032 -6.4222 0.0125984 0.00347363 1.04595e-05 6.66349e-06 1.0497 0
15352 1 4.26045 -6.37353 0.0108632 0.00406805 -2.70421e-05 -3.27118e-05 1.0545 0
15355 1 4.55084 -6.422 0.0124466 0.00306701 1.61982e-05 2.43432e-07 1.04633 0
15369 1 4.06481 -6.30816 0.00999169 0.00189852 0.0001287 -4.2977e-05 1.04614 0
15368 1 4.06701 -6.05147 0.00900101 0.000983049 0.000242009 -0.000136385 1.04452 0
15779 1 4.07153 -6.12047 0.00902068 0.00181043 0.000198197 -6.50343e-06 1.04533 0
15370 1 4.34275 -6.19966 0.0119232 0.00417072 5.12321e-05 -1.99816e-06 1.05021 0
15371 1 4.21384 -6.22139 0.00985706 0.00356649 0.000107839 -2.72113e-05 1.05316 0
15375 1 4.55891 -5.98906 0.0139954 0.0042828 1.03396e-05 2.91886e-06 1.04543 0
15374 1 4.46512 -6.27415 0.0134373 0.00393907 1.62537e-05 1.34189e-06 1.04724 0
15388 1 4.42743 -6.07818 0.0134123 0.00408493 2.66035e-05 2.34801e-06 1.04717 0
15358 1 4.84663 -6.44915 0.0101188 0.00213337 1.41058e-05 -1.23105e-06 1.04548 0
15356 1 4.72913 -6.40395 0.0115231 0.00273401 1.47389e-05 -7.55054e-07 1.04559 0
15360 1 4.6399 -6.29044 0.0130361 0.00351301 1.55667e-05 1.03611e-06 1.04575 0
15373 1 4.57705 -6.15139 0.0137497 0.00410013 1.37239e-05 2.74658e-06 1.04568 0
15377 1 4.75811 -6.18972 0.0129832 0.00363155 1.62786e-05 1.96895e-06 1.04581 0
15379 1 4.7131 -6.0433 0.013664 0.00416747 1.41845e-05 2.52867e-06 1.04556 0
15359 1 4.87702 -6.25799 0.011908 0.00298781 1.73499e-05 6.96328e-07 1.04596 0
15378 1 4.88713 -6.06711 0.0129376 0.00376789 1.67712e-05 1.697e-06 1.04594 0
15367 1 4.98074 -6.34846 0.01047 0.00227512 1.67692e-05 -6.77671e-07 1.04579 0
15381 1 5.00774 -6.14958 0.0120041 0.00310338 1.77209e-05 4.07383e-07 1.04598 0
15028 1 5.10908 -6.36773 0.00957011 0.00187155 1.63165e-05 -1.51002e-06 1.04554 0
15386 1 5.13546 -6.16455 0.0113594 0.00268097 1.74615e-05 -6.69397e-07 1.04576 0
15014 1 5.23337 -6.4554 0.00787726 0.00129925 1.44568e-05 -2.28349e-06 1.04497 0
15382 1 5.26154 -6.04626 0.0116717 0.0028587 1.65298e-05 -1.16066e-06 1.04543 0
15364 1 5.23594 -6.25946 0.0101419 0.00204474 1.67435e-05 -1.82381e-06 1.04545 0
15012 1 5.36578 -6.1445 0.0106222 0.0022269 1.59818e-05 -2.16038e-06 1.04524 0
15013 1 5.34838 -6.35126 0.00872112 0.00149566 1.52206e-05 -2.7223e-06 1.04499 0
15016 1 5.46857 -6.24417 0.00937967 0.00167394 1.47502e-05 -3.11445e-06 1.04498 0
15034 1 5.53684 -6.05492 0.0106895 0.00222089 1.38788e-05 -2.93719e-06 1.04496 0
15018 1 5.45647 -6.43727 0.00728391 0.00108005 1.33213e-05 -3.30261e-06 1.04452 0
15017 1 5.60781 -6.19747 0.00932947 0.00161279 1.30019e-05 -3.73727e-06 1.04483 0
15021 1 5.7454 -6.17603 0.00909319 0.0014899 1.08868e-05 -4.33903e-06 1.0447 0
15022 1 5.61275 -6.34907 0.00781031 0.00116445 1.23893e-05 -3.99511e-06 1.04454 0
15025 1 5.85228 -6.25349 0.00808731 0.00116075 8.97881e-06 -4.88124e-06 1.0445 0
15027 1 5.74647 -6.39975 0.00684811 0.00091962 1.01588e-05 -4.49826e-06 1.04423 0
14635 1 5.86497 -6.45975 0.00585646 0.00072491 7.99832e-06 -4.69811e-06 1.04396 0
15024 1 5.97794 -6.06715 0.0093718 0.00149574 6.93398e-06 -5.17408e-06 1.04453 0
15029 1 6.08031 -6.16232 0.00836858 0.00115445 5.18525e-06 -5.4833e-06 1.0444 0
14629 1 5.98407 -6.28295 0.00747992 0.000979331 6.69716e-06 -5.26175e-06 1.04432 0
14638 1 6.01333 -6.4315 0.00587103 0.000697256 5.87148e-06 -4.99118e-06 1.04392 0
14641 1 6.20563 -6.23919 0.00744366 0.000906131 3.13151e-06 -5.5584e-06 1.04423 0
14634 1 6.14996 -6.38401 0.00613116 0.000706087 3.84868e-06 -5.18968e-06 1.04396 0
14633 1 6.34432 -6.14417 0.00803602 0.000978782 1.29543e-06 -5.74952e-06 1.04425 0
14312 1 6.28808 -6.41951 0.00554655 0.00061672 1.77796e-06 -5.0033e-06 1.04379 0
14636 1 6.50522 -6.0753 0.00835353 0.000979943 -3.07874e-07 -5.88396e-06 1.0442 0
14639 1 6.38746 -6.2848 0.00673454 0.000739837 4.72187e-07 -5.34659e-06 1.04406 0
14791 1 6.54138 -6.21147 0.00719095 0.000752875 -1.20349e-06 -5.34633e-06 1.04411 0
14313 1 6.45536 -6.42848 0.00524947 0.000563908 -5.21396e-07 -4.66244e-06 1.0437 0
14322 1 6.71515 -6.20542 0.00705136 0.000663922 -2.75398e-06 -4.94904e-06 1.04405 0
14316 1 6.60356 -6.33628 0.00599158 0.000591818 -2.14483e-06 -4.68531e-06 1.04387 0
14328 1 6.64675 -6.46167 0.00472705 0.000484724 -2.66503e-06 -3.9023e-06 1.04356 0
14314 1 6.87277 -6.18049 0.00711907 0.000603176 -3.57177e-06 -4.62885e-06 1.04402 0
14325 1 6.82292 -6.33148 0.00583693 0.000508501 -3.94085e-06 -3.9973e-06 1.04381 0
13649 1 6.79854 -6.47884 0.00442875 0.00043641 -3.87686e-06 -3.25629e-06 1.04348 0
14329 1 7.00354 -6.31748 0.00583896 0.000443443 -4.71628e-06 -3.44251e-06 1.04377 0
13640 1 6.96359 -6.46544 0.00446339 0.000399381 -4.82135e-06 -2.71686e-06 1.04346 0
14321 1 7.05347 -6.17303 0.00704738 0.000512844 -4.0464e-06 -4.14357e-06 1.04396 0
14327 1 7.21906 -6.14232 0.00719394 0.000451285 -3.82259e-06 -3.92127e-06 1.04393 0
13970 1 7.18109 -6.29913 0.0059052 0.000380633 -4.84839e-06 -3.00062e-06 1.04375 0
13984 1 7.1315 -6.45284 0.00451156 0.00035566 -5.29122e-06 -2.20589e-06 1.04344 0
14870 1 5.71655 -0.238449 0.0127197 -0.000106748 -2.2511e-05 -1.24296e-05 1.04412 0
15652 1 4.16201 -0.156283 0.0104002 -0.000280677 -0.000146079 -0.000199384 1.04763 0
13280 1 7.29325 -6.4517 0.00446844 0.000308547 -5.22203e-06 -1.77083e-06 1.04341 0
16104 1 0.435064 -6.03328 0.02 0 0 0 1 2
16105 1 0.626731 -6.03474 0.02 0 0 0 1 2
16106 1 0.819041 -6.02704 0.02 0 0 0 1 2
16107 1 0.474285 -5.83368 0.02 0 0 0 1 2
16108 1 0.668426 -5.82876 0.02 0 0 0 1 2
16109 1 0.863594 -5.82346 0.02 0 0 0 1 2
16110 1 1.01696 -5.99289 0.02 0 0 0 1 2
16111 1 1.22538 -5.99456 0.02 0 0 0 1 2
16112 1 1.07007 -5.803 0.02 0 0 0 1 2
16113 1 1.28004 -5.8133 0.02 0 0 0 1 2
16114 1 1.43824 -6.01828 0.02 0 0 0 1 2
16115 1 1.66072 -6.02829 0.02 0 2.58854e-10 2.9596e-09 1 2
16116 1 1.48959 -5.8406 0.02 0 0 0 1 2
16118 1 1.50378 -5.65807 0.02 0 0 0 1 2
16117 1 1.70737 -5.85757 0.02 0 0 0 1 2
16119 1 1.72534 -5.67806 0.02 0 0 0 1 2
16120 1 1.9046 -6.02115 0.02 0 2.11876e-08 1.04827e-07 1 2
16121 1 2.11733 -6.02201 0.02 0 8.61468e-08 3.63908e-07 1 2
16122 1 1.92166 -5.83927 0.02 0 1.54122e-11 1.04075e-10 1 2
16124 1 1.94611 -5.65362 0.02 0 0 0 1 2
15612 1 2.52059 -6.03472 0.02 0 1.21268e-07 5.00158e-07 1 2
16123 1 2.13948 -5.83516 0.02 0 1.32313e-10 8.53266e-10 1 2
16125 1 2.32215 -6.00255 0.02 0 5.31095e-08 2.00922e-07 1 2
16126 1 2.35606 -5.8096 0.02 0 5.26008e-11 2.89348e-10 1 2
15613 1 2.55647 -5.84117 0.02 0 2.75921e-10 1.37432e-09 1 2
15614 1 2.72647 -6.01924 0.02 0 7.69314e-08 2.92714e-07 1 2
15615 1 2.7512 -5.81749 0.02 0 7.19437e-11 4.54132e-10 1 2
15616 1 2.93657 -6.01437 0.02 0 7.2396e-08 2.77997e-07 1 2
15617 1 2.94536 -5.82674 0.02 0 8.02013e-11 4.29839e-10 1 2
15782 1 3.14843 -6.00636 0.02 0 5.52496e-08 2.26569e-07 1 2
15783 1 3.14073 -5.81326 0.02 0 3.54051e-11 1.951e-10 1 2
15781 1 3.33565 -5.79328 0.02 0 -7.47363e-09 2.53972e-10 1 2
15780 1 3.35047 -5.99117 0.02 0 -2.68319e-08 1.20503e-07 1 2
15784 1 3.5306 -5.79598 0.02 0 -0.000197973 2.38599e-06 1 2
15785 1 3.54717 -5.99602 0.02 0 -0.000256258 -1.2892e-05 1 2
15788 1 3.72484 -5.76887 0.02 0 -0.00214455 7.7925e-05 1 2
15786 1 3.73794 -5.97428 0.02 0 -0.00256206 7.56049e-05 1 2
15787 1 3.92606 -5.97736 0.02 0 -0.00720589 0.000811835 1 2
15789 1 3.91729 -5.76878 0.02 0 -0.00647519 0.000230186 1 2
15790 1 4.00013 -5.94144 0.0180225 0.000249669 -0.00790984 0.000998678 1.03422 0
15792 1 4.06714 -5.75993 0.0104577 0.000853503 0.000424492 -0.00012146 1.04308 0
15389 1 4.00033 -5.87331 0.0180789 0.000102167 -0.00768435 0.000408668 1.03443 0
15392 1 4.19691 -5.63783 0.0102531 0.00209825 0.000286469 -7.87731e-06 1.05094 0
15791 1 4.2046 -5.89341 0.0102568 0.00242362 0.000283841 -2.71851e-05 1.0518 0
15793 1 3.99995 -5.69302 0.02 0 -0.00778792 0.000846914 1.03313 2
15372 1 4.26716 -6.0316 0.0103739 0.00327095 0.000133755 -2.74746e-05 1.05144 0
15376 1 4.38875 -5.91573 0.0130651 0.00385597 5.14172e-05 -6.14522e-07 1.04787 0
15390 1 4.29701 -5.77448 0.0112224 0.00309969 0.000143503 -6.70585e-07 1.05057 0
15391 1 4.50585 -5.82924 0.0139944 0.00420206 9.27527e-06 2.579e-06 1.04549 0
15397 1 4.43798 -5.68747 0.0136345 0.00390537 2.43031e-05 -1.92888e-07 1.04625 0
15395 1 4.60991 -5.70908 0.0141136 0.00446632 4.51814e-06 9.62699e-07 1.04484 0
15396 1 4.77654 -5.74267 0.013917 0.00459501 9.61912e-06 7.31773e-07 1.04529 0
15398 1 4.65208 -5.56291 0.0140282 0.00454451 3.91593e-06 -1.34554e-06 1.04465 0
15399 1 4.671 -5.86935 0.0140194 0.0044527 1.04787e-05 2.40664e-06 1.0452 0
15401 1 4.79865 -5.58242 0.0139011 0.00469692 7.74364e-06 -4.96354e-07 1.04514 0
15380 1 4.82069 -5.92366 0.0135896 0.00429752 1.3887e-05 1.8416e-06 1.04567 0
15400 1 4.92854 -5.82312 0.0134862 0.00435539 1.37963e-05 8.28927e-07 1.0457 0
15405 1 4.9433 -5.66573 0.013656 0.0045787 1.13554e-05 -8.34436e-09 1.04553 0
15383 1 5.14583 -5.97007 0.0124458 0.0034484 1.64717e-05 -3.40613e-07 1.04562 0
15384 1 5.01139 -5.95659 0.0129084 0.00384454 1.61724e-05 6.4376e-07 1.04583 0
15403 1 5.07339 -5.762 0.013292 0.00420763 1.39361e-05 -2.20769e-07 1.04558 0
15385 1 5.20278 -5.80656 0.0129121 0.00379674 1.48461e-05 -8.15695e-07 1.04539 0
15407 1 5.20689 -5.62954 0.0133411 0.00415257 1.27628e-05 -1.29879e-06 1.04528 0
15032 1 5.32427 -5.86572 0.0123935 0.00333171 1.49907e-05 -1.45459e-06 1.0452 0
15404 1 5.34325 -5.66329 0.0130439 0.00378312 1.30285e-05 -1.8082e-06 1.04509 0