ITEM: TIMESTEP
74000
ITEM: NUMBER OF ATOMS
12685
ITEM: BOX BOUNDS ff ff pp
0.0000000000000000e+00 2.2000000000000000e+01
-1.0000000000000000e+01 1.0000000000000000e+01
-2.0000000000000000e-02 2.0000000000000000e-02
ITEM: ATOMS id type x y vx vy fx fy c_den c_phase
1501 2 2 -10 0 0 0 0 1 5
1535 2 2 -9.8 0 0 0 0 1 5
1569 2 2 -9.6 0 0 0 0 1 5
1502 2 2.2 -10 0 0 0 0 1 5
1503 2 2.4 -10 0 0 0 0 1 5
1536 2 2.2 -9.8 0 0 0 0 1 5
1537 2 2.4 -9.8 0 0 0 0 1 5
1570 2 2.2 -9.6 0 0 0 0 1 5
1571 2 2.4 -9.6 0 0 0 0 1 5
1504 2 2.6 -10 0 0 0 0 1 5
1505 2 2.8 -10 0 0 0 0 1 5
1538 2 2.6 -9.8 0 0 0 0 1 5
1539 2 2.8 -9.8 0 0 0 0 1 5
1572 2 2.6 -9.6 0 0 0 0 1 5
1573 2 2.8 -9.6 0 0 0 0 1 5
1506 2 3 -10 0 0 0 0 1 5
1540 2 3 -9.8 0 0 0 0 1 5
1574 2 3 -9.6 0 0 0 0 1 5
1507 2 3.2 -10 0 0 0 0 1 5
1541 2 3.2 -9.8 0 0 0 0 1 5
1575 2 3.2 -9.6 0 0 0 0 1 5
1508 2 3.4 -10 0 0 0 0 1 5
1542 2 3.4 -9.8 0 0 0 0 1 5
1576 2 3.4 -9.6 0 0 0 0 1 5
1509 2 3.6 -10 0 0 0 0 1 5
1543 2 3.6 -9.8 0 0 0 0 1 5
1577 2 3.6 -9.6 0 0 0 0 1 5
1510 2 3.8 -10 0 0 0 0 1 5
1544 2 3.8 -9.8 0 0 0 0 1 5
1578 2 3.8 -9.6 0 0 0 0 1 5
1511 2 4 -10 0 0 0 0 1 5
1512 2 4.2 -10 0 0 0 0 1 5
1545 2 4 -9.8 0 0 0 0 1 5
1546 2 4.2 -9.8 0 0 0 0 1 5
1579 2 4 -9.6 0 0 0 0 1 5
1580 2 4.2 -9.6 0 0 0 0 1 5
1513 2 4.4 -10 0 0 0 0 1 5
1514 2 4.6 -10 0 0 0 0 1 5
1547 2 4.4 -9.8 0 0 0 0 1 5
1548 2 4.6 -9.8 0 0 0 0 1 5
1581 2 4.4 -9.6 0 0 0 0 1 5
1582 2 4.6 -9.6 0 0 0 0 1 5
1515 2 4.8 -10 0 0 0 0 1 5
1516 2 5 -10 0 0 0 0 1 5
1549 2 4.8 -9.8 0 0 0 0 1 5
1550 2 5 -9.8 0 0 0 0 1 5
1583 2 4.8 -9.6 0 0 0 0 1 5
1584 2 5 -9.6 0 0 0 0 1 5
1517 2 5.2 -10 0 0 0 0 1 5
1518 2 5.4 -10 0 0 0 0 1 5
1551 2 5.2 -9.8 0 0 0 0 1 5
1552 2 5.4 -9.8 0 0 0 0 1 5
1585 2 5.2 -9.6 0 0 0 0 1 5
1586 2 5.4 -9.6 0 0 0 0 1 5
1519 2 5.6 -10 0 0 0 0 1 5
1553 2 5.6 -9.8 0 0 0 0 1 5
1587 2 5.6 -9.6 0 0 0 0 1 5
1520 2 5.8 -10 0 0 0 0 1 5
1554 2 5.8 -9.8 0 0 0 0 1 5
1588 2 5.8 -9.6 0 0 0 0 1 5
1521 2 6 -10 0 0 0 0 1 5
1555 2 6 -9.8 0 0 0 0 1 5
1589 2 6 -9.6 0 0 0 0 1 5
1522 2 6.2 -10 0 0 0 0 1 5
1523 2 6.4 -10 0 0 0 0 1 5
1556 2 6.2 -9.8 0 0 0 0 1 5
1557 2 6.4 -9.8 0 0 0 0 1 5
1590 2 6.2 -9.6 0 0 0 0 1 5
1591 2 6.4 -9.6 0 0 0 0 1 5
1524 2 6.6 -10 0 0 0 0 1 5
1525 2 6.8 -10 0 0 0 0 1 5
1558 2 6.6 -9.8 0 0 0 0 1 5
1559 2 6.8 -9.8 0 0 0 0 1 5
1592 2 6.6 -9.6 0 0 0 0 1 5
1593 2 6.8 -9.6 0 0 0 0 1 5
1526 2 7 -10 0 0 0 0 1 5
1527 2 7.2 -10 0 0 0 0 1 5
1560 2 7 -9.8 0 0 0 0 1 5
1561 2 7.2 -9.8 0 0 0 0 1 5
1594 2 7 -9.6 0 0 0 0 1 5
1595 2 7.2 -9.6 0 0 0 0 1 5
1603 2 2 -9.4 0 0 0 0 1 5
1637 2 2 -9.2 0 0 0 0 1 5
1604 2 2.2 -9.4 0 0 0 0 1 5
1605 2 2.4 -9.4 0 0 0 0 1 5
1638 2 2.2 -9.2 0 0 0 0 1 5
1639 2 2.4 -9.2 0 0 0 0 1 5
1606 2 2.6 -9.4 0 0 0 0 1 5
1607 2 2.8 -9.4 0 0 0 0 1 5
1640 2 2.6 -9.2 0 0 0 0 1 5
1641 2 2.8 -9.2 0 0 0 0 1 5
1608 2 3 -9.4 0 0 0 0 1 5
1642 2 3 -9.2 0 0 0 0 1 5
1609 2 3.2 -9.4 0 0 0 0 1 5
1643 2 3.2 -9.2 0 0 0 0 1 5
1610 2 3.4 -9.4 0 0 0 0 1 5
1644 2 3.4 -9.2 0 0 0 0 1 5
1611 2 3.6 -9.4 0 0 0 0 1 5
1645 2 3.6 -9.2 0 0 0 0 1 5
1612 2 3.8 -9.4 0 0 0 0 1 5
1646 2 3.8 -9.2 0 0 0 0 1 5
1613 2 4 -9.4 0 0 0 0 1 5
1614 2 4.2 -9.4 0 0 0 0 1 5
1647 2 4 -9.2 0 0 0 0 1 5
1648 2 4.2 -9.2 0 0 0 0 1 5
1615 2 4.4 -9.4 0 0 0 0 1 5
1616 2 4.6 -9.4 0 0 0 0 1 5
1649 2 4.4 -9.2 0 0 0 0 1 5
1650 2 4.6 -9.2 0 0 0 0 1 5
1617 2 4.8 -9.4 0 0 0 0 1 5
1618 2 5 -9.4 0 0 0 0 1 5
1651 2 4.8 -9.2 0 0 0 0 1 5
1652 2 5 -9.2 0 0 0 0 1 5
1619 2 5.2 -9.4 0 0 0 0 1 5
1620 2 5.4 -9.4 0 0 0 0 1 5
1653 2 5.2 -9.2 0 0 0 0 1 5
1654 2 5.4 -9.2 0 0 0 0 1 5
1621 2 5.6 -9.4 0 0 0 0 1 5
1655 2 5.6 -9.2 0 0 0 0 1 5
1622 2 5.8 -9.4 0 0 0 0 1 5
1656 2 5.8 -9.2 0 0 0 0 1 5
1623 2 6 -9.4 0 0 0 0 1 5
1657 2 6 -9.2 0 0 0 0 1 5
1624 2 6.2 -9.4 0 0 0 0 1 5
1625 2 6.4 -9.4 0 0 0 0 1 5
1658 2 6.2 -9.2 0 0 0 0 1 5
1659 2 6.4 -9.2 0 0 0 0 1 5
1626 2 6.6 -9.4 0 0 0 0 1 5
1627 2 6.8 -9.4 0 0 0 0 1 5
1660 2 6.6 -9.2 0 0 0 0 1 5
1661 2 6.8 -9.2 0 0 0 0 1 5
1628 2 7 -9.4 0 0 0 0 1 5
1629 2 7.2 -9.4 0 0 0 0 1 5
1662 2 7 -9.2 0 0 0 0 1 5
1663 2 7.2 -9.2 0 0 0 0 1 5
1671 2 2 -9 0 0 0 0 1 5
1705 2 2 -8.8 0 0 0 0 1 5
1672 2 2.2 -9 0 0 0 0 1 5
1673 2 2.4 -9 0 0 0 0 1 5
1706 2 2.2 -8.8 0 0 0 0 1 5
1707 2 2.4 -8.8 0 0 0 0 1 5
1674 2 2.6 -9 0 0 0 0 1 5
1675 2 2.8 -9 0 0 0 0 1 5
1708 2 2.6 -8.8 0 0 0 0 1 5
1709 2 2.8 -8.8 0 0 0 0 1 5
1676 2 3 -9 0 0 0 0 1 5
1710 2 3 -8.8 0 0 0 0 1 5
1677 2 3.2 -9 0 0 0 0 1 5
1711 2 3.2 -8.8 0 0 0 0 1 5
1678 2 3.4 -9 0 0 0 0 1 5
1712 2 3.4 -8.8 0 0 0 0 1 5
1679 2 3.6 -9 0 0 0 0 1 5
1713 2 3.6 -8.8 0 0 0 0 1 5
1680 2 3.8 -9 0 0 0 0 1 5
1714 2 3.8 -8.8 0 0 0 0 1 5
1681 2 4 -9 0 0 0 0 1 5
1682 2 4.2 -9 0 0 0 0 1 5
1715 2 4 -8.8 0 0 0 0 1 5
1716 2 4.2 -8.8 0 0 0 0 1 5
1683 2 4.4 -9 0 0 0 0 1 5
1684 2 4.6 -9 0 0 0 0 1 5
1717 2 4.4 -8.8 0 0 0 0 1 5
1718 2 4.6 -8.8 0 0 0 0 1 5
1685 2 4.8 -9 0 0 0 0 1 5
1686 2 5 -9 0 0 0 0 1 5
1719 2 4.8 -8.8 0 0 0 0 1 5
1720 2 5 -8.8 0 0 0 0 1 5
1687 2 5.2 -9 0 0 0 0 1 5
1688 2 5.4 -9 0 0 0 0 1 5
1721 2 5.2 -8.8 0 0 0 0 1 5
1722 2 5.4 -8.8 0 0 0 0 1 5
1689 2 5.6 -9 0 0 0 0 1 5
1723 2 5.6 -8.8 0 0 0 0 1 5
1690 2 5.8 -9 0 0 0 0 1 5
1724 2 5.8 -8.8 0 0 0 0 1 5
1691 2 6 -9 0 0 0 0 1 5
1725 2 6 -8.8 0 0 0 0 1 5
1692 2 6.2 -9 0 0 0 0 1 5
1693 2 6.4 -9 0 0 0 0 1 5
1726 2 6.2 -8.8 0 0 0 0 1 5
1727 2 6.4 -8.8 0 0 0 0 1 5
1694 2 6.6 -9 0 0 0 0 1 5
1695 2 6.8 -9 0 0 0 0 1 5
1728 2 6.6 -8.8 0 0 0 0 1 5
1729 2 6.8 -8.8 0 0 0 0 1 5
1696 2 7 -9 0 0 0 0 1 5
1697 2 7.2 -9 0 0 0 0 1 5
1730 2 7 -8.8 0 0 0 0 1 5
1731 2 7.2 -8.8 0 0 0 0 1 5
1739 2 2 -8.6 0 0 0 0 1 5
1773 2 2 -8.4 0 0 0 0 1 5
1740 2 2.2 -8.6 0 0 0 0 1 5
1741 2 2.4 -8.6 0 0 0 0 1 5
1774 2 2.2 -8.4 0 0 0 0 1 5
1775 2 2.4 -8.4 0 0 0 0 1 5
1742 2 2.6 -8.6 0 0 0 0 1 5
1743 2 2.8 -8.6 0 0 0 0 1 5
1776 2 2.6 -8.4 0 0 0 0 1 5
1777 2 2.8 -8.4 0 0 0 0 1 5
1744 2 3 -8.6 0 0 0 0 1 5
1778 2 3 -8.4 0 0 0 0 1 5
1745 2 3.2 -8.6 0 0 0 0 1 5
1779 2 3.2 -8.4 0 0 0 0 1 5
1746 2 3.4 -8.6 0 0 0 0 1 5
1780 2 3.4 -8.4 0 0 0 0 1 5
1747 2 3.6 -8.6 0 0 0 0 1 5
1781 2 3.6 -8.4 0 0 0 0 1 5
1748 2 3.8 -8.6 0 0 0 0 1 5
1782 2 3.8 -8.4 0 0 0 0 1 5
1749 2 4 -8.6 0 0 0 0 1 5
1750 2 4.2 -8.6 0 0 0 0 1 5
1783 2 4 -8.4 0 0 0 0 1 5
1784 2 4.2 -8.4 0 0 0 0 1 5
1751 2 4.4 -8.6 0 0 0 0 1 5
1752 2 4.6 -8.6 0 0 0 0 1 5
1785 2 4.4 -8.4 0 0 0 0 1 5
1786 2 4.6 -8.4 0 0 0 0 1 5
1753 2 4.8 -8.6 0 0 0 0 1 5
1754 2 5 -8.6 0 0 0 0 1 5
1787 2 4.8 -8.4 0 0 0 0 1 5
1788 2 5 -8.4 0 0 0 0 1 5
1755 2 5.2 -8.6 0 0 0 0 1 5
1756 2 5.4 -8.6 0 0 0 0 1 5
1789 2 5.2 -8.4 0 0 0 0 1 5
1790 2 5.4 -8.4 0 0 0 0 1 5
1757 2 5.6 -8.6 0 0 0 0 1 5
1791 2 5.6 -8.4 0 0 0 0 1 5
1758 2 5.8 -8.6 0 0 0 0 1 5
1792 2 5.8 -8.4 0 0 0 0 1 5
1759 2 6 -8.6 0 0 0 0 1 5
1793 2 6 -8.4 0 0 0 0 1 5
1760 2 6.2 -8.6 0 0 0 0 1 5
1761 2 6.4 -8.6 0 0 0 0 1 5
1794 2 6.2 -8.4 0 0 0 0 1 5
1795 2 6.4 -8.4 0 0 0 0 1 5
1762 2 6.6 -8.6 0 0 0 0 1 5
1763 2 6.8 -8.6 0 0 0 0 1 5
1796 2 6.6 -8.4 0 0 0 0 1 5
1797 2 6.8 -8.4 0 0 0 0 1 5
1764 2 7 -8.6 0 0 0 0 1 5
1765 2 7.2 -8.6 0 0 0 0 1 5
1798 2 7 -8.4 0 0 0 0 1 5
1799 2 7.2 -8.4 0 0 0 0 1 5
1807 2 2 -8.2 0 0 0 0 1 5
1841 2 2 -8 0 0 0 0 1 5
1808 2 2.2 -8.2 0 0 0 0 1 5
1809 2 2.4 -8.2 0 0 0 0 1 5
1842 2 2.2 -8 0 0 0 0 1 5
1843 2 2.4 -8 0 0 0 0 1 5
1810 2 2.6 -8.2 0 0 0 0 1 5
1811 2 2.8 -8.2 0 0 0 0 1 5
1844 2 2.6 -8 0 0 0 0 1 5
1845 2 2.8 -8 0 0 0 0 1 5
1812 2 3 -8.2 0 0 0 0 1 5
1846 2 3 -8 0 0 0 0 1 5
1813 2 3.2 -8.2 0 0 0 0 1 5
1847 2 3.2 -8 0 0 0 0 1 5
1814 2 3.4 -8.2 0 0 0 0 1 5
1848 2 3.4 -8 0 0 0 0 1 5
1815 2 3.6 -8.2 0 0 0 0 1 5
1849 2 3.6 -8 0 0 0 0 1 5
1816 2 3.8 -8.2 0 0 0 0 1 5
1850 2 3.8 -8 0 0 0 0 1 5
1817 2 4 -8.2 0 0 0 0 1 5
1818 2 4.2 -8.2 0 0 0 0 1 5
1851 2 4 -8 0 0 0 0 1 5
1852 2 4.2 -8 0 0 0 0 1 5
1819 2 4.4 -8.2 0 0 0 0 1 5
1820 2 4.6 -8.2 0 0 0 0 1 5
1853 2 4.4 -8 0 0 0 0 1 5
1854 2 4.6 -8 0 0 0 0 1 5
1821 2 4.8 -8.2 0 0 0 0 1 5
1822 2 5 -8.2 0 0 0 0 1 5
1855 2 4.8 -8 0 0 0 0 1 5
1856 2 5 -8 0 0 0 0 1 5
1823 2 5.2 -8.2 0 0 0 0 1 5
1824 2 5.4 -8.2 0 0 0 0 1 5
1857 2 5.2 -8 0 0 0 0 1 5
1858 2 5.4 -8 0 0 0 0 1 5
1825 2 5.6 -8.2 0 0 0 0 1 5
1859 2 5.6 -8 0 0 0 0 1 5
1826 2 5.8 -8.2 0 0 0 0 1 5
1860 2 5.8 -8 0 0 0 0 1 5
1827 2 6 -8.2 0 0 0 0 1 5
1861 2 6 -8 0 0 0 0 1 5
1828 2 6.2 -8.2 0 0 0 0 1 5
1829 2 6.4 -8.2 0 0 0 0 1 5
1862 2 6.2 -8 0 0 0 0 1 5
1863 2 6.4 -8 0 0 0 0 1 5
1830 2 6.6 -8.2 0 0 0 0 1 5
1831 2 6.8 -8.2 0 0 0 0 1 5
1864 2 6.6 -8 0 0 0 0 1 5
1865 2 6.8 -8 0 0 0 0 1 5
1832 2 7 -8.2 0 0 0 0 1 5
1833 2 7.2 -8.2 0 0 0 0 1 5
1866 2 7 -8 0 0 0 0 1 5
1867 2 7.2 -8 0 0 0 0 1 5
1875 2 2 -7.8 0 0 0 0 1 5
1909 2 2 -7.6 0 0 0 0 1 5
1943 2 2 -7.4 0 0 0 0 0.999437 5
1876 2 2.2 -7.8 0 0 0 0 1 5
1877 2 2.4 -7.8 0 0 0 0 1 5
1910 2 2.2 -7.6 0 0 0 0 1 5
1911 2 2.4 -7.6 0 0 0 0 1 5
1944 2 2.2 -7.4 0 0 0 0 0.9996 5
1945 2 2.4 -7.4 0 0 0 0 1.00627 5
1878 2 2.6 -7.8 0 0 0 0 1 5
1879 2 2.8 -7.8 0 0 0 0 1 5
1912 2 2.6 -7.6 0 0 0 0 1 5
1913 2 2.8 -7.6 0 0 0 0 1 5
1946 2 2.6 -7.4 0 0 0 0 0.999888 5
1947 2 2.8 -7.4 0 0 0 0 0.991707 5
1880 2 3 -7.8 0 0 0 0 1 5
1914 2 3 -7.6 0 0 0 0 1 5
1948 2 3 -7.4 0 0 0 0 1.00055 5
1881 2 3.2 -7.8 0 0 0 0 1 5
1915 2 3.2 -7.6 0 0 0 0 1 5
1949 2 3.2 -7.4 0 0 0 0 1.00021 5
1882 2 3.4 -7.8 0 0 0 0 1 5
1916 2 3.4 -7.6 0 0 0 0 1 5
1950 2 3.4 -7.4 0 0 0 0 1.00099 5
1883 2 3.6 -7.8 0 0 0 0 1 5
1917 2 3.6 -7.6 0 0 0 0 1 5
1951 2 3.6 -7.4 0 0 0 0 0.998767 5
1884 2 3.8 -7.8 0 0 0 0 1 5
1918 2 3.8 -7.6 0 0 0 0 1 5
1952 2 3.8 -7.4 0 0 0 0 1.02814 5
1885 2 4 -7.8 0 0 0 0 1 5
1886 2 4.2 -7.8 0 0 0 0 1 5
1919 2 4 -7.6 0 0 0 0 1 5
1920 2 4.2 -7.6 0 0 0 0 1 5
1953 2 4 -7.4 0 0 0 0 1.03922 5
1954 2 4.2 -7.4 0 0 0 0 1.05058 5
1887 2 4.4 -7.8 0 0 0 0 1 5
1888 2 4.6 -7.8 0 0 0 0 1 5
1921 2 4.4 -7.6 0 0 0 0 1 5
1922 2 4.6 -7.6 0 0 0 0 1 5
1955 2 4.4 -7.4 0 0 0 0 1.04337 5
1956 2 4.6 -7.4 0 0 0 0 1.04181 5
1889 2 4.8 -7.8 0 0 0 0 1 5
1890 2 5 -7.8 0 0 0 0 1 5
1923 2 4.8 -7.6 0 0 0 0 1 5
1924 2 5 -7.6 0 0 0 0 1 5
1957 2 4.8 -7.4 0 0 0 0 1.04089 5
1958 2 5 -7.4 0 0 0 0 1.04048 5
1891 2 5.2 -7.8 0 0 0 0 1 5
1892 2 5.4 -7.8 0 0 0 0 1 5
1925 2 5.2 -7.6 0 0 0 0 1 5
1926 2 5.4 -7.6 0 0 0 0 1 5
1959 2 5.2 -7.4 0 0 0 0 1.04028 5
1960 2 5.4 -7.4 0 0 0 0 1.04025 5
1893 2 5.6 -7.8 0 0 0 0 1 5
1927 2 5.6 -7.6 0 0 0 0 1 5
1961 2 5.6 -7.4 0 0 0 0 1.04016 5
1894 2 5.8 -7.8 0 0 0 0 1 5
1928 2 5.8 -7.6 0 0 0 0 1 5
1962 2 5.8 -7.4 0 0 0 0 1.0399 5
1895 2 6 -7.8 0 0 0 0 1 5
1929 2 6 -7.6 0 0 0 0 1 5
1963 2 6 -7.4 0 0 0 0 1.0397 5
1896 2 6.2 -7.8 0 0 0 0 1 5
1897 2 6.4 -7.8 0 0 0 0 1 5
1930 2 6.2 -7.6 0 0 0 0 1 5
1931 2 6.4 -7.6 0 0 0 0 1 5
1964 2 6.2 -7.4 0 0 0 0 1.03961 5
1965 2 6.4 -7.4 0 0 0 0 1.03927 5
1898 2 6.6 -7.8 0 0 0 0 1 5
1899 2 6.8 -7.8 0 0 0 0 1 5
1932 2 6.6 -7.6 0 0 0 0 1 5
1933 2 6.8 -7.6 0 0 0 0 1 5
1966 2 6.6 -7.4 0 0 0 0 1.03923 5
1967 2 6.8 -7.4 0 0 0 0 1.03927 5
1900 2 7 -7.8 0 0 0 0 1 5
1901 2 7.2 -7.8 0 0 0 0 1 5
1934 2 7 -7.6 0 0 0 0 1 5
1935 2 7.2 -7.6 0 0 0 0 1 5
1968 2 7 -7.4 0 0 0 0 1.03923 5
1969 2 7.2 -7.4 0 0 0 0 1.03908 5
1977 2 2 -7.2 0 0 0 0 1.00094 5
2011 2 2 -7 0 0 0 0 1.00133 5
1978 2 2.2 -7.2 0 0 0 0 0.99974 5
1979 2 2.4 -7.2 0 0 0 0 1.00094 5
2012 2 2.2 -7 0 0 0 0 0.999801 5
2013 2 2.4 -7 0 0 0 0 1.00012 5
1980 2 2.6 -7.2 0 0 0 0 0.999701 5
1981 2 2.8 -7.2 0 0 0 0 0.998434 5
2014 2 2.6 -7 0 0 0 0 0.999738 5
2015 2 2.8 -7 0 0 0 0 0.999475 5
1982 2 3 -7.2 0 0 0 0 1.00134 5
2016 2 3 -7 0 0 0 0 1.00066 5
1983 2 3.2 -7.2 0 0 0 0 1.00036 5
2017 2 3.2 -7 0 0 0 0 1.00016 5
1984 2 3.4 -7.2 0 0 0 0 0.99964 5
2018 2 3.4 -7 0 0 0 0 1.00002 5
1985 2 3.6 -7.2 0 0 0 0 1.00082 5
2019 2 3.6 -7 0 0 0 0 1.00265 5
1986 2 3.8 -7.2 0 0 0 0 1.02257 5
2020 2 3.8 -7 0 0 0 0 1.01891 5
1987 2 4 -7.2 0 0 0 0 1.03568 5
1988 2 4.2 -7.2 0 0 0 0 1.04479 5
2021 2 4 -7 0 0 0 0 1.03187 5
2022 2 4.2 -7 0 0 0 0 1.04192 5
1989 2 4.4 -7.2 0 0 0 0 1.04662 5
1990 2 4.6 -7.2 0 0 0 0 1.04321 5
2023 2 4.4 -7 0 0 0 0 1.0476 5
2024 2 4.6 -7 0 0 0 0 1.0446 5
1991 2 4.8 -7.2 0 0 0 0 1.04202 5
1992 2 5 -7.2 0 0 0 0 1.04167 5
2025 2 4.8 -7 0 0 0 0 1.0429 5
2026 2 5 -7 0 0 0 0 1.04257 5
1993 2 5.2 -7.2 0 0 0 0 1.04156 5
1994 2 5.4 -7.2 0 0 0 0 1.04137 5
2027 2 5.2 -7 0 0 0 0 1.04251 5
2028 2 5.4 -7 0 0 0 0 1.04224 5
1995 2 5.6 -7.2 0 0 0 0 1.04109 5
2029 2 5.6 -7 0 0 0 0 1.04191 5
1996 2 5.8 -7.2 0 0 0 0 1.04095 5
2030 2 5.8 -7 0 0 0 0 1.0418 5
1997 2 6 -7.2 0 0 0 0 1.0408 5
2031 2 6 -7 0 0 0 0 1.04165 5
1998 2 6.2 -7.2 0 0 0 0 1.04059 5
1999 2 6.4 -7.2 0 0 0 0 1.04044 5
2032 2 6.2 -7 0 0 0 0 1.04142 5
2033 2 6.4 -7 0 0 0 0 1.0413 5
2000 2 6.6 -7.2 0 0 0 0 1.04038 5
2001 2 6.8 -7.2 0 0 0 0 1.04024 5
2034 2 6.6 -7 0 0 0 0 1.04117 5
2035 2 6.8 -7 0 0 0 0 1.04096 5
2002 2 7 -7.2 0 0 0 0 1.04016 5
2003 2 7.2 -7.2 0 0 0 0 1.04009 5
2036 2 7 -7 0 0 0 0 1.04081 5
2037 2 7.2 -7 0 0 0 0 1.04078 5
15012 1 1.60952 -6.55978 0.02 0 -4.29392e-06 -2.40423e-06 1 2
15011 1 1.79659 -6.75993 0.02 0 -0.0045669 -0.00152416 1 2
15013 1 1.8102 -6.56879 0.02 0 -5.39453e-05 0.000182063 1 2
15014 1 1.99703 -6.73563 0.02 0 -0.00210601 -0.000164306 1 2
15016 1 2.01296 -6.55292 0.02 0 0.000328183 0.00067785 1 2
15015 1 2.19369 -6.75328 0.02 0 -0.00322514 -0.000514078 1 2
15017 1 2.21781 -6.5679 0.02 0 0.000193108 0.000557569 1 2
15018 1 2.39193 -6.73604 0.02 0 -0.00246507 -0.000559274 1 2
15020 1 2.43091 -6.56301 0.02 0 0.000168756 0.000600049 1 2
15019 1 2.59818 -6.76867 0.02 0 -0.00329174 -0.000536882 1 2
15021 1 2.62982 -6.58096 0.02 0 1.19293e-05 0.000495947 1 2
15022 1 2.80654 -6.73157 0.02 0 -0.00220852 -0.000370844 1 2
15024 1 2.82808 -6.55022 0.02 0 0.000129101 0.000418225 1 2
15023 1 3.00272 -6.74733 0.02 0 -0.00279638 -0.00052139 1 2
15025 1 3.03255 -6.56511 0.02 0 0.000110258 0.000498115 1 2
15026 1 3.20311 -6.75542 0.02 0 -0.00288482 -0.00060761 1 2
15028 1 3.25392 -6.5848 0.02 0 4.46603e-05 0.00063018 1 2
14629 1 3.62507 -6.74131 0.02 0 -0.00409071 -2.597e-05 1 2
14628 1 3.66046 -6.55585 0.02 0 -0.00142188 0.000609851 1 2
15027 1 3.42113 -6.7563 0.02 0 -0.00296882 -0.000436281 1 2
15029 1 3.4599 -6.5739 0.02 0 1.47972e-05 0.000522441 1 2
14630 1 3.82072 -6.73288 0.02 0 -0.00894886 0.000166197 1 2
14631 1 3.99932 -6.75924 0.02 0 -0.00855454 0.000181474 1.02145 2
14632 1 3.85902 -6.55059 0.02 0 -0.00501246 0.000631152 1 2
14633 1 3.99995 -6.55992 0.02 0 -0.00481974 0.000545565 1.03306 2
14634 1 4.09892 -6.6979 0.00769799 0.00163865 -0.000756372 -0.000588832 1.04531 0
14636 1 4.20916 -6.50235 0.0109733 0.00264384 -0.000295312 3.1248e-05 1.05221 0
14635 1 4.22447 -6.6919 0.0065672 0.000521807 -0.000356229 -0.000107386 1.05241 0
14637 1 3.99993 -6.4959 0.02 0 -0.00454657 0.000573806 1.03378 2
14638 1 4.32878 -6.6149 0.00898986 0.00129906 -9.32066e-05 1.69306e-06 1.04988 0
14640 1 4.32275 -6.42707 0.0120785 0.00285919 -3.87723e-05 1.77304e-05 1.0498 0
14639 1 4.45129 -6.57802 0.0105123 0.00160357 1.24159e-05 1.81907e-05 1.04547 0
14641 1 4.00012 -6.62487 0.0177711 0.000282559 -0.00891565 0.00113024 1.03338 0
14789 1 4.02583 -6.84329 -0.000423715 -0.00113004 -0.000140154 9.131e-05 1.04817 0
14793 1 4.38136 -6.7718 0.00452433 -0.00103756 -4.71343e-05 7.38109e-07 1.05105 0
14791 1 4.56386 -6.4657 0.0121722 0.0022471 3.04873e-05 2.22076e-05 1.0432 0
14790 1 4.60396 -6.60866 0.00908728 0.00123288 2.69835e-05 1.33974e-05 1.04278 0
14317 1 4.53949 -6.75892 0.00541411 -0.000251575 1.03876e-05 5.5691e-06 1.04554 0
14312 1 4.73546 -6.61641 0.00801029 0.00107982 1.84565e-05 9.76616e-06 1.04222 0
14313 1 4.87322 -6.58362 0.00783091 0.00102199 1.36962e-05 7.84157e-06 1.04222 0
14324 1 4.70422 -6.79535 0.00386671 -0.000435517 7.17065e-06 2.75126e-06 1.04493 0
13969 1 4.87318 -6.73626 0.00425693 8.1006e-05 7.46569e-06 2.8191e-06 1.04316 0
14320 1 5.04654 -6.61118 0.00627275 0.000675217 9.82437e-06 4.91482e-06 1.04206 0
14328 1 5.21144 -6.53915 0.0069807 0.000746292 1.01867e-05 5.31855e-06 1.04182 0
13971 1 5.01676 -6.78084 0.00286435 -0.000504904 3.54439e-06 1.21158e-06 1.04412 0
13979 1 5.17958 -6.67961 0.00428066 0.000219356 5.63526e-06 2.91045e-06 1.04207 0
13644 1 5.25063 -6.80103 0.00223086 -0.00067343 1.97355e-06 6.93696e-07 1.04396 0
13975 1 5.36059 -6.61937 0.00501385 0.000355961 7.10683e-06 3.20359e-06 1.04151 0
13983 1 5.50993 -6.59906 0.00500882 0.000324081 7.82395e-06 2.62089e-06 1.04125 0
13649 1 5.65229 -6.58927 0.00483988 0.000277165 8.60011e-06 1.90076e-06 1.04106 0
13274 1 5.43163 -6.77435 0.00235881 -0.000505677 2.33456e-06 8.65581e-07 1.04324 0
13289 1 5.60547 -6.7634 0.00224625 -0.000467349 2.98871e-06 4.01458e-07 1.04278 0
13641 1 5.78236 -6.63867 0.00379055 0.000136692 7.84621e-06 8.59929e-07 1.04104 0
13276 1 5.94941 -6.63242 0.00362024 0.000105136 8.84917e-06 3.05431e-09 1.04083 0
12949 1 5.78839 -6.79644 0.0017221 -0.000662887 3.19909e-06 -6.44397e-07 1.04302 0
13280 1 6.12526 -6.52234 0.00487792 0.000207271 1.2538e-05 -8.84128e-07 1.04059 0
12617 1 5.99691 -6.81003 0.00156334 -0.000731253 3.97751e-06 -1.42336e-06 1.04292 0
12936 1 6.10568 -6.673 0.00283961 -2.41572e-05 8.24881e-06 -9.75231e-07 1.0409 0
12953 1 6.25615 -6.60868 0.00356325 8.46482e-05 1.08344e-05 -1.61095e-06 1.04049 0
12604 1 6.3892 -6.65502 0.00276878 -3.5644e-06 9.5665e-06 -2.12912e-06 1.0405 0
11882 1 6.24685 -6.79888 0.00145802 -0.000663145 5.13705e-06 -2.22466e-06 1.0425 0
11552 1 6.48698 -6.82434 0.00117521 -0.000819844 5.09537e-06 -2.79841e-06 1.04256 0
12941 1 6.53773 -6.64292 0.00277648 2.12443e-05 9.96363e-06 -2.60787e-06 1.04034 0
11544 1 6.69066 -6.61656 0.0029637 5.66485e-05 1.04033e-05 -2.94845e-06 1.04016 0
12288 1 6.85045 -6.60775 0.00294713 6.8337e-05 1.00396e-05 -3.19533e-06 1.04007 0
11164 1 6.70174 -6.76781 0.0014373 -0.000466039 6.30038e-06 -2.6216e-06 1.0417 0
11323 1 6.87049 -6.78868 0.00121971 -0.000648839 5.48618e-06 -2.52625e-06 1.04207 0
12601 1 7.00051 -6.593 0.00302345 8.40723e-05 9.51385e-06 -3.38833e-06 1.03998 0
12612 1 7.15226 -6.58035 0.0030748 9.54981e-05 8.60041e-06 -3.51125e-06 1.03988 0
10507 1 7.03693 -6.74996 0.00147211 -0.000408347 5.97312e-06 -2.55614e-06 1.04133 0
12292 1 7.29392 -6.58573 0.00295696 0.000102942 7.28339e-06 -3.38377e-06 1.03982 0
10519 1 7.19465 -6.75994 0.00130386 -0.000455526 5.11342e-06 -2.38943e-06 1.04141 0
13816 1 7.30316 -0.250078 0.0119757 -0.000501452 -5.88111e-06 4.87529e-06 1.04018 0
15030 1 1.63962 -6.37653 0.02 0 2.70041e-06 4.4969e-07 1 2
15031 1 1.78905 -6.18885 0.02 0 2.99815e-07 2.16239e-07 1 2
15032 1 1.84012 -6.37813 0.02 0 1.1217e-05 6.95363e-05 1 2
15035 1 1.99193 -6.1736 0.02 0 1.95724e-06 3.70451e-06 1 2
15033 1 2.03588 -6.36413 0.02 0 5.53672e-05 0.00012904 1 2
15034 1 2.23232 -6.38198 0.02 0 9.80615e-05 0.000164889 1 2
15036 1 2.19377 -6.19033 0.02 0 6.17252e-06 1.22488e-05 1 2
15037 1 2.4288 -6.38001 0.02 0 0.000102473 0.000151709 1 2
15039 1 2.39557 -6.1913 0.02 0 7.15412e-06 1.39997e-05 1 2
15038 1 2.62706 -6.39143 0.02 0 0.000114448 0.000150585 1 2
15040 1 2.60406 -6.20515 0.02 0 8.86048e-06 1.67545e-05 1 2
15041 1 2.8217 -6.36654 0.02 0 8.40653e-05 0.000115339 1 2
15043 1 2.83001 -6.18795 0.02 0 6.13395e-06 1.15409e-05 1 2
15042 1 3.01645 -6.375 0.02 0 9.54176e-05 0.000132428 1 2
15044 1 3.05468 -6.19302 0.02 0 6.24673e-06 1.3138e-05 1 2
15045 1 3.20797 -6.41149 0.02 0 0.0001421 0.000178247 1 2
15047 1 3.26075 -6.23015 0.02 0 1.15252e-05 2.02569e-05 1 2
14643 1 3.61885 -6.37194 0.02 0 -0.000781844 0.000184151 1 2
14642 1 3.67481 -6.18665 0.02 0 -0.00130204 9.25843e-05 1 2
15046 1 3.41432 -6.39413 0.02 0 0.00011648 0.000163173 1 2
15048 1 3.46716 -6.20621 0.02 0 -2.72908e-05 1.76997e-05 1 2
14644 1 3.82683 -6.3674 0.02 0 -0.00400924 0.000257677 1 2
14646 1 3.87642 -6.18267 0.02 0 -0.00492419 0.000262157 1 2
14645 1 3.99962 -6.36396 0.02 0 -0.00442232 0.000514206 1.02849 2
14647 1 4.00032 -6.16345 0.0182004 0.000121349 -0.00719832 0.000485398 1.03015 0
14648 1 4.00008 -6.31825 0.0182578 0.000161175 -0.00696893 0.000644701 1.03252 0
14650 1 4.15516 -6.17842 0.0112397 0.00223313 0.000264113 -5.51291e-05 1.04848 0
14649 1 4.15079 -6.35485 0.011663 0.00220256 -0.000165098 -0.000117139 1.04979 0
14651 1 4.13118 -6.04463 0.0110841 0.00173546 0.000435572 -0.000100867 1.04654 0
14652 1 4.27974 -6.26277 0.0122159 0.00319399 6.85071e-05 -1.37072e-05 1.04968 0
14654 1 4.48005 -6.04053 0.014662 0.00378742 1.91964e-05 3.05532e-05 1.04292 0
14653 1 4.44396 -6.36862 0.0135847 0.00288134 2.4849e-05 2.8051e-05 1.04522 0
14655 1 4.31749 -6.10099 0.0129535 0.00352216 0.000129273 1.59513e-05 1.04728 0
14795 1 4.43989 -6.21376 0.0143446 0.00343279 3.35404e-05 3.15219e-05 1.04449 0
14322 1 4.72595 -6.43725 0.0114613 0.00210198 2.16684e-05 1.70566e-05 1.04252 0
14792 1 4.60414 -6.31227 0.0135682 0.00294804 2.53047e-05 2.66104e-05 1.04283 0
14797 1 4.70675 -6.07734 0.0141908 0.00362394 1.1593e-05 2.56483e-05 1.04242 0
14799 1 4.58694 -6.15543 0.0144296 0.00354071 1.66842e-05 2.88577e-05 1.04255 0
14334 1 4.74974 -6.25661 0.0131266 0.00287336 1.76517e-05 2.14469e-05 1.04269 0
14319 1 4.867 -6.41228 0.0107933 0.00188373 1.66593e-05 1.32809e-05 1.04261 0
14794 1 4.91241 -6.24908 0.0122093 0.00246749 1.5415e-05 1.64818e-05 1.04287 0
14796 1 4.8524 -6.11121 0.0133965 0.00317822 1.32093e-05 2.11721e-05 1.04278 0
14316 1 5.01374 -6.48221 0.00885667 0.00125262 1.33304e-05 8.55327e-06 1.04238 0
14332 1 5.04873 -6.14178 0.0123301 0.00252994 1.37599e-05 1.57451e-05 1.04279 0
14314 1 5.03407 -6.33711 0.0106809 0.0017894 1.46459e-05 1.17082e-05 1.0427 0
14315 1 5.16204 -6.25238 0.0109479 0.00180899 1.39319e-05 1.12808e-05 1.04256 0
14337 1 5.18826 -6.05859 0.0123288 0.00247473 1.27957e-05 1.43757e-05 1.04246 0
14321 1 5.20653 -6.3971 0.00912823 0.00121597 1.27828e-05 7.89205e-06 1.04221 0
14318 1 5.29736 -6.18534 0.0109978 0.00175767 1.3494e-05 1.0231e-05 1.04228 0
14325 1 5.37139 -6.4638 0.007574 0.000792326 1.10145e-05 5.20444e-06 1.04163 0
14323 1 5.45742 -6.11551 0.010973 0.00167207 1.34981e-05 8.71175e-06 1.04197 0
14327 1 5.37573 -6.30851 0.00948949 0.00121324 1.30319e-05 7.23575e-06 1.04199 0
14326 1 5.52968 -6.25912 0.00943632 0.00111941 1.35455e-05 5.89544e-06 1.04178 0
14341 1 5.62108 -6.04909 0.0109188 0.00157767 1.37306e-05 7.04444e-06 1.04172 0
14329 1 5.52457 -6.42008 0.00763644 0.000732274 1.1828e-05 4.29756e-06 1.04147 0
14331 1 5.65737 -6.19279 0.00963134 0.00111514 1.42117e-05 4.9603e-06 1.04166 0
13970 1 5.67046 -6.42596 0.00710885 0.000581295 1.22473e-05 2.89736e-06 1.04124 0
13968 1 5.77188 -6.25479 0.00868074 0.000822357 1.44544e-05 3.0717e-06 1.04146 0
14330 1 5.81589 -6.07438 0.0101247 0.00120131 1.46e-05 4.03255e-06 1.0415 0
13974 1 5.83564 -6.36992 0.00729592 0.000549729 1.3788e-05 1.74485e-06 1.04116 0
13972 1 5.92719 -6.17109 0.00900256 0.000838409 1.52207e-05 1.91715e-06 1.04136 0
13640 1 5.85133 -6.50734 0.00561303 0.000339367 1.16942e-05 1.05819e-06 1.04085 0
13973 1 6.08892 -6.11313 0.00906887 0.00079616 1.5447e-05 4.91319e-07 1.04121 0
13978 1 6.00976 -6.28654 0.00770839 0.00054853 1.5159e-05 4.44943e-07 1.04115 0
13984 1 6.00291 -6.44634 0.00602826 0.000337691 1.34794e-05 8.61493e-08 1.04082 0
13977 1 6.21267 -6.19051 0.0081119 0.000553177 1.56627e-05 -1.06401e-06 1.04106 0
13981 1 6.38386 -6.09909 0.00851736 0.00057868 1.52377e-05 -2.09504e-06 1.04094 0
13986 1 6.15654 -6.3413 0.0068175 0.00037758 1.51137e-05 -9.9798e-07 1.04091 0
13982 1 6.35714 -6.25534 0.00722399 0.000379062 1.55311e-05 -2.35726e-06 1.04086 0
13656 1 6.28 -6.41252 0.00583971 0.000253759 1.46029e-05 -1.94847e-06 1.04065 0
13985 1 6.55779 -6.14336 0.00782833 0.000409918 1.48127e-05 -3.36228e-06 1.04079 0
13646 1 6.4927 -6.30357 0.00652691 0.000277216 1.50936e-05 -3.23581e-06 1.04067 0
13648 1 6.39489 -6.481 0.00491637 0.000178891 1.3745e-05 -2.50332e-06 1.0404 0
13271 1 6.53646 -6.47652 0.00474993 0.000164554 1.36246e-05 -3.188e-06 1.04029 0
13645 1 6.71279 -6.14274 0.0075826 0.000334128 1.39552e-05 -4.03235e-06 1.04067 0
13652 1 6.64483 -6.30936 0.00622938 0.000228677 1.44252e-05 -3.88609e-06 1.04053 0
13647 1 6.87632 -6.15715 0.00724026 0.000253585 1.27451e-05 -4.50905e-06 1.04054 0
13284 1 6.69367 -6.46704 0.0046418 0.000158059 1.31796e-05 -3.67526e-06 1.04018 0
13659 1 6.80474 -6.30503 0.00605141 0.000192546 1.3419e-05 -4.34501e-06 1.04042 0
13281 1 6.86162 -6.44842 0.00464396 0.000150328 1.23585e-05 -4.05659e-06 1.04009 0
13657 1 6.98409 -6.28009 0.00607096 0.000163066 1.18869e-05 -4.64983e-06 1.04034 0
13651 1 7.062 -6.11865 0.0073445 0.000210206 1.08232e-05 -4.74338e-06 1.04046 0
12940 1 7.02635 -6.43059 0.0046648 0.000139043 1.11129e-05 -4.27181e-06 1.04002 0
13653 1 7.224 -6.09245 0.00740758 0.00016627 8.9072e-06 -4.80411e-06 1.04038 0
13270 1 7.15457 -6.25751 0.0061087 0.000132593 1.00556e-05 -4.74327e-06 1.04028 0
12934 1 7.18651 -6.41127 0.00472449 0.000125415 9.57104e-06 -4.34569e-06 1.03998 0
13279 1 7.31959 -6.2327 0.00619935 0.000103173 8.04512e-06 -4.70256e-06 1.04024 0
12944 1 7.3373 -6.40923 0.00465308 0.000117378 7.87091e-06 -4.2523e-06 1.03993 0
15049 1 1.77618 -5.99591 0.02 0 4.36371e-09 3.13391e-09 1 2
15050 1 1.78869 -5.79861 0.02 0 0 0 1 2
15051 1 1.98362 -5.9881 0.02 0 1.02866e-08 2.6454e-08 1 2
15053 1 1.99129 -5.80404 0.02 0 1.31477e-11 4.09877e-11 1 2
15052 1 2.20125 -6.00104 0.02 0 4.88621e-08 1.35636e-07 1 2
15054 1 2.19768 -5.81115 0.02 0 4.54341e-11 1.56815e-10 1 2
15055 1 2.41454 -6.003 0.02 0 4.57034e-08 1.17242e-07 1 2
15057 1 2.40421 -5.81359 0.02 0 6.69016e-11 2.17268e-10 1 2
15056 1 2.62541 -6.0243 0.02 0 1.03986e-07 2.65808e-07 1 2
15058 1 2.61977 -5.84316 0.02 0 2.02067e-10 5.48019e-10 1 2
15059 1 2.64587 -5.66559 0.02 0 0 0 1 2
15060 1 2.82814 -6.00969 0.02 0 4.8538e-08 1.19088e-07 1 2
15062 1 2.86826 -5.83787 0.02 0 1.48065e-10 4.90895e-10 1 2
15064 1 2.8565 -5.66211 0.02 0 0 0 1 2
15061 1 3.03653 -6.01202 0.02 0 6.86427e-08 1.88222e-07 1 2
15063 1 3.11984 -5.85177 0.02 0 2.1237e-10 8.78772e-10 1 2
15065 1 3.07126 -5.68099 0.02 0 2.45176e-19 2.74355e-18 1 2
15066 1 3.25955 -6.0438 0.02 0 1.63503e-07 4.52986e-07 1 2
15070 1 3.30479 -5.67338 0.02 0 -2.75237e-14 6.63479e-14 1 2
15068 1 3.32493 -5.8607 0.02 0 -4.89517e-10 3.0011e-09 1 2
14656 1 3.68513 -5.99723 0.02 0 -0.0013768 -4.89226e-06 1 2
14658 1 3.7343 -5.80658 0.02 0 -0.00201381 0.000128821 1 2
15067 1 3.47711 -6.01904 0.02 0 -4.58086e-05 -1.75744e-06 1 2
15069 1 3.5297 -5.82953 0.02 0 -0.000163027 8.16219e-06 1 2
14657 1 3.88698 -5.98398 0.02 0 -0.00500589 0.000333274 1 2
14659 1 3.92809 -5.77274 0.02 0 -0.00629062 0.000323331 1 2
14660 1 4.0002 -5.9609 0.0182707 0.000224042 -0.00691725 0.000896166 1.03127 0
14661 1 3.99959 -5.73268 0.02 0 -0.00450558 0.000665693 1.02936 2
14662 1 4 -5.91845 0.02 0 -0.00681296 0.000774074 1.03137 2
14664 1 4.09437 -5.78027 0.0112269 0.00149539 -0.000381154 0.00036683 1.04191 0
14663 1 4.27149 -5.96047 0.0120285 0.00334999 0.000168727 5.60361e-05 1.04785 0
14665 1 4.20316 -5.64605 0.0104273 0.00240267 -0.000377393 3.26496e-05 1.04674 0
14666 1 4.25728 -5.8195 0.0113787 0.00316412 -4.43416e-05 0.000150074 1.04753 0
14667 1 4.42494 -5.90032 0.0143064 0.00376556 1.90166e-05 3.29465e-05 1.0434 0
14668 1 4.34774 -5.68571 0.0125862 0.00337105 -9.56609e-05 3.65366e-05 1.04489 0
14669 1 4.47847 -5.72851 0.0143166 0.00381201 -7.07374e-06 2.48809e-05 1.04205 0
14801 1 4.57728 -5.83182 0.0146676 0.00399909 2.41916e-06 2.46685e-05 1.04167 0
14800 1 4.81339 -5.93672 0.0141132 0.00375871 8.66174e-06 2.39524e-05 1.04245 0
14333 1 4.96819 -6.00734 0.013352 0.00323645 1.15133e-05 2.00676e-05 1.04274 0
14798 1 4.64468 -5.94457 0.0145927 0.00393861 5.98441e-06 2.66156e-05 1.042 0
14803 1 4.62514 -5.58331 0.0144583 0.00394381 -8.09874e-07 2.40723e-05 1.04112 0
14802 1 4.81081 -5.78226 0.0143144 0.003983 5.17543e-06 2.44433e-05 1.04215 0
14806 1 4.68177 -5.71898 0.0145342 0.00406959 2.71776e-06 2.45835e-05 1.04157 0
14804 1 4.82503 -5.60753 0.0143571 0.00405372 1.75366e-06 2.39715e-05 1.04187 0
14805 1 4.95992 -5.83574 0.0138866 0.00367955 7.82624e-06 2.22515e-05 1.04248 0
14352 1 4.97052 -5.67028 0.0141223 0.00388542 4.39508e-06 2.28264e-05 1.04224 0
14336 1 5.34037 -6.01329 0.0120914 0.00225917 1.2542e-05 1.22338e-05 1.04212 0
14335 1 5.10173 -5.92686 0.0132526 0.00312601 1.06994e-05 1.82467e-05 1.04249 0
14354 1 5.10657 -5.75296 0.0137758 0.00350622 7.44295e-06 2.01486e-05 1.04227 0
14356 1 5.24342 -5.6893 0.0137068 0.00330097 7.19497e-06 1.81343e-05 1.042 0
14344 1 5.40202 -5.85719 0.0127394 0.00257288 1.08419e-05 1.33102e-05 1.04191 0
14338 1 5.24563 -5.86587 0.0131182 0.00292071 1.02947e-05 1.61836e-05 1.04216 0
14343 1 5.39169 -5.70201 0.0133839 0.0029484 8.34856e-06 1.52579e-05 1.04181 0
14340 1 5.52114 -5.93989 0.0119534 0.00209001 1.24167e-05 1.00655e-05 1.0418 0
14339 1 5.54618 -5.72917 0.0129341 0.00255992 9.65543e-06 1.21216e-05 1.04166 0
14345 1 5.75607 -5.94522 0.0112201 0.00163772 1.34435e-05 6.19243e-06 1.04154 0
14342 1 5.6479 -5.83332 0.0121831 0.00211634 1.16905e-05 9.19723e-06 1.04161 0
14364 1 5.72086 -5.64019 0.0129043 0.00238666 9.2506e-06 9.80948e-06 1.04147 0
14346 1 5.80131 -5.77482 0.0120962 0.00196229 1.16423e-05 7.19809e-06 1.04144 0
14347 1 5.87298 -5.61093 0.0127113 0.00215522 9.62594e-06 7.48264e-06 1.04134 0
13989 1 5.97526 -5.99541 0.0102708 0.00118773 1.45625e-05 2.67401e-06 1.04132 0
14348 1 5.92491 -5.86053 0.0113001 0.00157003 1.31383e-05 4.52554e-06 1.04134 0
13991 1 5.9927 -5.70388 0.0120203 0.00178088 1.1441e-05 4.91461e-06 1.04126 0
14350 1 6.10847 -5.79289 0.011272 0.00143782 1.2814e-05 2.64835e-06 1.04116 0
14349 1 6.13027 -5.94155 0.0102674 0.00111503 1.43658e-05 1.17445e-06 1.04116 0
14351 1 6.17626 -5.63642 0.0119896 0.00161185 1.11396e-05 3.02037e-06 1.0411 0
13976 1 6.26187 -6.01182 0.00945663 0.000833412 1.49236e-05 -6.19732e-07 1.04105 0
13990 1 6.26918 -5.81555 0.0107911 0.00118589 1.3242e-05 6.03613e-07 1.04103 0
13988 1 6.32911 -5.6605 0.0115789 0.00135632 1.16782e-05 1.11559e-06 1.04098 0
13994 1 6.39822 -5.8895 0.0100479 0.000917344 1.37878e-05 -1.11575e-06 1.04093 0
13992 1 6.46604 -5.70773 0.0110715 0.00111452 1.21192e-05 -4.80259e-07 1.04088 0
13980 1 6.51119 -5.9954 0.00907864 0.000646919 1.42563e-05 -2.55219e-06 1.04085 0
13998 1 6.5624 -5.81726 0.0102314 0.000861245 1.28224e-05 -1.89809e-06 1.0408 0
13987 1 6.79147 -5.98111 0.00873049 0.000465208 1.27089e-05 -3.85163e-06 1.04065 0
13642 1 6.66014 -5.94767 0.00917441 0.000601962 1.33257e-05 -3.17731e-06 1.04074 0
13996 1 6.71213 -5.77359 0.010279 0.000771136 1.19211e-05 -2.53683e-06 1.0407 0