ITEM: TIMESTEP
40000
ITEM: NUMBER OF ATOMS
11353
ITEM: BOX BOUNDS ff ff pp
0.0000000000000000e+00 2.2000000000000000e+01
-1.0000000000000000e+01 1.0000000000000000e+01
-2.0000000000000000e-02 2.0000000000000000e-02
ITEM: ATOMS id type x y vx vy fx fy c_den c_phase
1501 2 2 -10 0 0 0 0 1 5
1535 2 2 -9.8 0 0 0 0 1 5
1569 2 2 -9.6 0 0 0 0 1 5
1502 2 2.2 -10 0 0 0 0 1 5
1503 2 2.4 -10 0 0 0 0 1 5
1536 2 2.2 -9.8 0 0 0 0 1 5
1537 2 2.4 -9.8 0 0 0 0 1 5
1570 2 2.2 -9.6 0 0 0 0 1 5
1571 2 2.4 -9.6 0 0 0 0 1 5
1504 2 2.6 -10 0 0 0 0 1 5
1505 2 2.8 -10 0 0 0 0 1 5
1538 2 2.6 -9.8 0 0 0 0 1 5
1539 2 2.8 -9.8 0 0 0 0 1 5
1572 2 2.6 -9.6 0 0 0 0 1 5
1573 2 2.8 -9.6 0 0 0 0 1 5
1506 2 3 -10 0 0 0 0 1 5
1540 2 3 -9.8 0 0 0 0 1 5
1574 2 3 -9.6 0 0 0 0 1 5
1507 2 3.2 -10 0 0 0 0 1 5
1541 2 3.2 -9.8 0 0 0 0 1 5
1575 2 3.2 -9.6 0 0 0 0 1 5
1508 2 3.4 -10 0 0 0 0 1 5
1542 2 3.4 -9.8 0 0 0 0 1 5
1576 2 3.4 -9.6 0 0 0 0 1 5
1509 2 3.6 -10 0 0 0 0 1 5
1543 2 3.6 -9.8 0 0 0 0 1 5
1577 2 3.6 -9.6 0 0 0 0 1 5
1510 2 3.8 -10 0 0 0 0 1 5
1544 2 3.8 -9.8 0 0 0 0 1 5
1578 2 3.8 -9.6 0 0 0 0 1 5
1511 2 4 -10 0 0 0 0 1 5
1512 2 4.2 -10 0 0 0 0 1 5
1545 2 4 -9.8 0 0 0 0 1 5
1546 2 4.2 -9.8 0 0 0 0 1 5
1579 2 4 -9.6 0 0 0 0 1 5
1580 2 4.2 -9.6 0 0 0 0 1 5
1513 2 4.4 -10 0 0 0 0 1 5
1514 2 4.6 -10 0 0 0 0 1 5
1547 2 4.4 -9.8 0 0 0 0 1 5
1548 2 4.6 -9.8 0 0 0 0 1 5
1581 2 4.4 -9.6 0 0 0 0 1 5
1582 2 4.6 -9.6 0 0 0 0 1 5
1515 2 4.8 -10 0 0 0 0 1 5
1516 2 5 -10 0 0 0 0 1 5
1549 2 4.8 -9.8 0 0 0 0 1 5
1550 2 5 -9.8 0 0 0 0 1 5
1583 2 4.8 -9.6 0 0 0 0 1 5
1584 2 5 -9.6 0 0 0 0 1 5
1517 2 5.2 -10 0 0 0 0 1 5
1518 2 5.4 -10 0 0 0 0 1 5
1551 2 5.2 -9.8 0 0 0 0 1 5
1552 2 5.4 -9.8 0 0 0 0 1 5
1585 2 5.2 -9.6 0 0 0 0 1 5
1586 2 5.4 -9.6 0 0 0 0 1 5
1519 2 5.6 -10 0 0 0 0 1 5
1553 2 5.6 -9.8 0 0 0 0 1 5
1587 2 5.6 -9.6 0 0 0 0 1 5
1520 2 5.8 -10 0 0 0 0 1 5
1554 2 5.8 -9.8 0 0 0 0 1 5
1588 2 5.8 -9.6 0 0 0 0 1 5
1521 2 6 -10 0 0 0 0 1 5
1555 2 6 -9.8 0 0 0 0 1 5
1589 2 6 -9.6 0 0 0 0 1 5
1522 2 6.2 -10 0 0 0 0 1 5
1523 2 6.4 -10 0 0 0 0 1 5
1556 2 6.2 -9.8 0 0 0 0 1 5
1557 2 6.4 -9.8 0 0 0 0 1 5
1590 2 6.2 -9.6 0 0 0 0 1 5
1591 2 6.4 -9.6 0 0 0 0 1 5
1524 2 6.6 -10 0 0 0 0 1 5
1525 2 6.8 -10 0 0 0 0 1 5
1558 2 6.6 -9.8 0 0 0 0 1 5
1559 2 6.8 -9.8 0 0 0 0 1 5
1592 2 6.6 -9.6 0 0 0 0 1 5
1593 2 6.8 -9.6 0 0 0 0 1 5
1526 2 7 -10 0 0 0 0 1 5
1527 2 7.2 -10 0 0 0 0 1 5
1560 2 7 -9.8 0 0 0 0 1 5
1561 2 7.2 -9.8 0 0 0 0 1 5
1594 2 7 -9.6 0 0 0 0 1 5
1595 2 7.2 -9.6 0 0 0 0 1 5
1603 2 2 -9.4 0 0 0 0 1 5
1637 2 2 -9.2 0 0 0 0 1 5
1604 2 2.2 -9.4 0 0 0 0 1 5
1605 2 2.4 -9.4 0 0 0 0 1 5
1638 2 2.2 -9.2 0 0 0 0 1 5
1639 2 2.4 -9.2 0 0 0 0 1 5
1606 2 2.6 -9.4 0 0 0 0 1 5
1607 2 2.8 -9.4 0 0 0 0 1 5
1640 2 2.6 -9.2 0 0 0 0 1 5
1641 2 2.8 -9.2 0 0 0 0 1 5
1608 2 3 -9.4 0 0 0 0 1 5
1642 2 3 -9.2 0 0 0 0 1 5
1609 2 3.2 -9.4 0 0 0 0 1 5
1643 2 3.2 -9.2 0 0 0 0 1 5
1610 2 3.4 -9.4 0 0 0 0 1 5
1644 2 3.4 -9.2 0 0 0 0 1 5
1611 2 3.6 -9.4 0 0 0 0 1 5
1645 2 3.6 -9.2 0 0 0 0 1 5
1612 2 3.8 -9.4 0 0 0 0 1 5
1646 2 3.8 -9.2 0 0 0 0 1 5
1613 2 4 -9.4 0 0 0 0 1 5
1614 2 4.2 -9.4 0 0 0 0 1 5
1647 2 4 -9.2 0 0 0 0 1 5
1648 2 4.2 -9.2 0 0 0 0 1 5
1615 2 4.4 -9.4 0 0 0 0 1 5
1616 2 4.6 -9.4 0 0 0 0 1 5
1649 2 4.4 -9.2 0 0 0 0 1 5
1650 2 4.6 -9.2 0 0 0 0 1 5
1617 2 4.8 -9.4 0 0 0 0 1 5
1618 2 5 -9.4 0 0 0 0 1 5
1651 2 4.8 -9.2 0 0 0 0 1 5
1652 2 5 -9.2 0 0 0 0 1 5
1619 2 5.2 -9.4 0 0 0 0 1 5
1620 2 5.4 -9.4 0 0 0 0 1 5
1653 2 5.2 -9.2 0 0 0 0 1 5
1654 2 5.4 -9.2 0 0 0 0 1 5
1621 2 5.6 -9.4 0 0 0 0 1 5
1655 2 5.6 -9.2 0 0 0 0 1 5
1622 2 5.8 -9.4 0 0 0 0 1 5
1656 2 5.8 -9.2 0 0 0 0 1 5
1623 2 6 -9.4 0 0 0 0 1 5
1657 2 6 -9.2 0 0 0 0 1 5
1624 2 6.2 -9.4 0 0 0 0 1 5
1625 2 6.4 -9.4 0 0 0 0 1 5
1658 2 6.2 -9.2 0 0 0 0 1 5
1659 2 6.4 -9.2 0 0 0 0 1 5
1626 2 6.6 -9.4 0 0 0 0 1 5
1627 2 6.8 -9.4 0 0 0 0 1 5
1660 2 6.6 -9.2 0 0 0 0 1 5
1661 2 6.8 -9.2 0 0 0 0 1 5
1628 2 7 -9.4 0 0 0 0 1 5
1629 2 7.2 -9.4 0 0 0 0 1 5
1662 2 7 -9.2 0 0 0 0 1 5
1663 2 7.2 -9.2 0 0 0 0 1 5
1671 2 2 -9 0 0 0 0 1 5
1705 2 2 -8.8 0 0 0 0 1 5
1672 2 2.2 -9 0 0 0 0 1 5
1673 2 2.4 -9 0 0 0 0 1 5
1706 2 2.2 -8.8 0 0 0 0 1 5
1707 2 2.4 -8.8 0 0 0 0 1 5
1674 2 2.6 -9 0 0 0 0 1 5
1675 2 2.8 -9 0 0 0 0 1 5
1708 2 2.6 -8.8 0 0 0 0 1 5
1709 2 2.8 -8.8 0 0 0 0 1 5
1676 2 3 -9 0 0 0 0 1 5
1710 2 3 -8.8 0 0 0 0 1 5
1677 2 3.2 -9 0 0 0 0 1 5
1711 2 3.2 -8.8 0 0 0 0 1 5
1678 2 3.4 -9 0 0 0 0 1 5
1712 2 3.4 -8.8 0 0 0 0 1 5
1679 2 3.6 -9 0 0 0 0 1 5
1713 2 3.6 -8.8 0 0 0 0 1 5
1680 2 3.8 -9 0 0 0 0 1 5
1714 2 3.8 -8.8 0 0 0 0 1 5
1681 2 4 -9 0 0 0 0 1 5
1682 2 4.2 -9 0 0 0 0 1 5
1715 2 4 -8.8 0 0 0 0 1 5
1716 2 4.2 -8.8 0 0 0 0 1 5
1683 2 4.4 -9 0 0 0 0 1 5
1684 2 4.6 -9 0 0 0 0 1 5
1717 2 4.4 -8.8 0 0 0 0 1 5
1718 2 4.6 -8.8 0 0 0 0 1 5
1685 2 4.8 -9 0 0 0 0 1 5
1686 2 5 -9 0 0 0 0 1 5
1719 2 4.8 -8.8 0 0 0 0 1 5
1720 2 5 -8.8 0 0 0 0 1 5
1687 2 5.2 -9 0 0 0 0 1 5
1688 2 5.4 -9 0 0 0 0 1 5
1721 2 5.2 -8.8 0 0 0 0 1 5
1722 2 5.4 -8.8 0 0 0 0 1 5
1689 2 5.6 -9 0 0 0 0 1 5
1723 2 5.6 -8.8 0 0 0 0 1 5
1690 2 5.8 -9 0 0 0 0 1 5
1724 2 5.8 -8.8 0 0 0 0 1 5
1691 2 6 -9 0 0 0 0 1 5
1725 2 6 -8.8 0 0 0 0 1 5
1692 2 6.2 -9 0 0 0 0 1 5
1693 2 6.4 -9 0 0 0 0 1 5
1726 2 6.2 -8.8 0 0 0 0 1 5
1727 2 6.4 -8.8 0 0 0 0 1 5
1694 2 6.6 -9 0 0 0 0 1 5
1695 2 6.8 -9 0 0 0 0 1 5
1728 2 6.6 -8.8 0 0 0 0 1 5
1729 2 6.8 -8.8 0 0 0 0 1 5
1696 2 7 -9 0 0 0 0 1 5
1697 2 7.2 -9 0 0 0 0 1 5
1730 2 7 -8.8 0 0 0 0 1 5
1731 2 7.2 -8.8 0 0 0 0 1 5
1739 2 2 -8.6 0 0 0 0 1 5
1773 2 2 -8.4 0 0 0 0 1 5
1740 2 2.2 -8.6 0 0 0 0 1 5
1741 2 2.4 -8.6 0 0 0 0 1 5
1774 2 2.2 -8.4 0 0 0 0 1 5
1775 2 2.4 -8.4 0 0 0 0 1 5
1742 2 2.6 -8.6 0 0 0 0 1 5
1743 2 2.8 -8.6 0 0 0 0 1 5
1776 2 2.6 -8.4 0 0 0 0 1 5
1777 2 2.8 -8.4 0 0 0 0 1 5
1744 2 3 -8.6 0 0 0 0 1 5
1778 2 3 -8.4 0 0 0 0 1 5
1745 2 3.2 -8.6 0 0 0 0 1 5
1779 2 3.2 -8.4 0 0 0 0 1 5
1746 2 3.4 -8.6 0 0 0 0 1 5
1780 2 3.4 -8.4 0 0 0 0 1 5
1747 2 3.6 -8.6 0 0 0 0 1 5
1781 2 3.6 -8.4 0 0 0 0 1 5
1748 2 3.8 -8.6 0 0 0 0 1 5
1782 2 3.8 -8.4 0 0 0 0 1 5
1749 2 4 -8.6 0 0 0 0 1 5
1750 2 4.2 -8.6 0 0 0 0 1 5
1783 2 4 -8.4 0 0 0 0 1 5
1784 2 4.2 -8.4 0 0 0 0 1 5
1751 2 4.4 -8.6 0 0 0 0 1 5
1752 2 4.6 -8.6 0 0 0 0 1 5
1785 2 4.4 -8.4 0 0 0 0 1 5
1786 2 4.6 -8.4 0 0 0 0 1 5
1753 2 4.8 -8.6 0 0 0 0 1 5
1754 2 5 -8.6 0 0 0 0 1 5
1787 2 4.8 -8.4 0 0 0 0 1 5
1788 2 5 -8.4 0 0 0 0 1 5
1755 2 5.2 -8.6 0 0 0 0 1 5
1756 2 5.4 -8.6 0 0 0 0 1 5
1789 2 5.2 -8.4 0 0 0 0 1 5
1790 2 5.4 -8.4 0 0 0 0 1 5
1757 2 5.6 -8.6 0 0 0 0 1 5
1791 2 5.6 -8.4 0 0 0 0 1 5
1758 2 5.8 -8.6 0 0 0 0 1 5
1792 2 5.8 -8.4 0 0 0 0 1 5
1759 2 6 -8.6 0 0 0 0 1 5
1793 2 6 -8.4 0 0 0 0 1 5
1760 2 6.2 -8.6 0 0 0 0 1 5
1761 2 6.4 -8.6 0 0 0 0 1 5
1794 2 6.2 -8.4 0 0 0 0 1 5
1795 2 6.4 -8.4 0 0 0 0 1 5
1762 2 6.6 -8.6 0 0 0 0 1 5
1763 2 6.8 -8.6 0 0 0 0 1 5
1796 2 6.6 -8.4 0 0 0 0 1 5
1797 2 6.8 -8.4 0 0 0 0 1 5
1764 2 7 -8.6 0 0 0 0 1 5
1765 2 7.2 -8.6 0 0 0 0 1 5
1798 2 7 -8.4 0 0 0 0 1 5
1799 2 7.2 -8.4 0 0 0 0 1 5
1807 2 2 -8.2 0 0 0 0 1 5
1841 2 2 -8 0 0 0 0 1 5
1808 2 2.2 -8.2 0 0 0 0 1 5
1809 2 2.4 -8.2 0 0 0 0 1 5
1842 2 2.2 -8 0 0 0 0 1 5
1843 2 2.4 -8 0 0 0 0 1 5
1810 2 2.6 -8.2 0 0 0 0 1 5
1811 2 2.8 -8.2 0 0 0 0 1 5
1844 2 2.6 -8 0 0 0 0 1 5
1845 2 2.8 -8 0 0 0 0 1 5
1812 2 3 -8.2 0 0 0 0 1 5
1846 2 3 -8 0 0 0 0 1 5
1813 2 3.2 -8.2 0 0 0 0 1 5
1847 2 3.2 -8 0 0 0 0 1 5
1814 2 3.4 -8.2 0 0 0 0 1 5
1848 2 3.4 -8 0 0 0 0 1 5
1815 2 3.6 -8.2 0 0 0 0 1 5
1849 2 3.6 -8 0 0 0 0 1 5
1816 2 3.8 -8.2 0 0 0 0 1 5
1850 2 3.8 -8 0 0 0 0 1 5
1817 2 4 -8.2 0 0 0 0 1 5
1818 2 4.2 -8.2 0 0 0 0 1 5
1851 2 4 -8 0 0 0 0 1 5
1852 2 4.2 -8 0 0 0 0 1 5
1819 2 4.4 -8.2 0 0 0 0 1 5
1820 2 4.6 -8.2 0 0 0 0 1 5
1853 2 4.4 -8 0 0 0 0 1 5
1854 2 4.6 -8 0 0 0 0 1 5
1821 2 4.8 -8.2 0 0 0 0 1 5
1822 2 5 -8.2 0 0 0 0 1 5
1855 2 4.8 -8 0 0 0 0 1 5
1856 2 5 -8 0 0 0 0 1 5
1823 2 5.2 -8.2 0 0 0 0 1 5
1824 2 5.4 -8.2 0 0 0 0 1 5
1857 2 5.2 -8 0 0 0 0 1 5
1858 2 5.4 -8 0 0 0 0 1 5
1825 2 5.6 -8.2 0 0 0 0 1 5
1859 2 5.6 -8 0 0 0 0 1 5
1826 2 5.8 -8.2 0 0 0 0 1 5
1860 2 5.8 -8 0 0 0 0 1 5
1827 2 6 -8.2 0 0 0 0 1 5
1861 2 6 -8 0 0 0 0 1 5
1828 2 6.2 -8.2 0 0 0 0 1 5
1829 2 6.4 -8.2 0 0 0 0 1 5
1862 2 6.2 -8 0 0 0 0 1 5
1863 2 6.4 -8 0 0 0 0 1 5
1830 2 6.6 -8.2 0 0 0 0 1 5
1831 2 6.8 -8.2 0 0 0 0 1 5
1864 2 6.6 -8 0 0 0 0 1 5
1865 2 6.8 -8 0 0 0 0 1 5
1832 2 7 -8.2 0 0 0 0 1 5
1833 2 7.2 -8.2 0 0 0 0 1 5
1866 2 7 -8 0 0 0 0 1 5
1867 2 7.2 -8 0 0 0 0 1 5
1875 2 2 -7.8 0 0 0 0 1 5
1909 2 2 -7.6 0 0 0 0 1 5
1943 2 2 -7.4 0 0 0 0 1.01067 5
1876 2 2.2 -7.8 0 0 0 0 1 5
1877 2 2.4 -7.8 0 0 0 0 1 5
1910 2 2.2 -7.6 0 0 0 0 1 5
1911 2 2.4 -7.6 0 0 0 0 1 5
1944 2 2.2 -7.4 0 0 0 0 1.00251 5
1945 2 2.4 -7.4 0 0 0 0 0.999949 5
1878 2 2.6 -7.8 0 0 0 0 1 5
1879 2 2.8 -7.8 0 0 0 0 1 5
1912 2 2.6 -7.6 0 0 0 0 1 5
1913 2 2.8 -7.6 0 0 0 0 1 5
1946 2 2.6 -7.4 0 0 0 0 0.999862 5
1947 2 2.8 -7.4 0 0 0 0 0.998063 5
1880 2 3 -7.8 0 0 0 0 1 5
1914 2 3 -7.6 0 0 0 0 1 5
1948 2 3 -7.4 0 0 0 0 1.0055 5
1881 2 3.2 -7.8 0 0 0 0 1 5
1915 2 3.2 -7.6 0 0 0 0 1 5
1949 2 3.2 -7.4 0 0 0 0 0.999374 5
1882 2 3.4 -7.8 0 0 0 0 1 5
1916 2 3.4 -7.6 0 0 0 0 1 5
1950 2 3.4 -7.4 0 0 0 0 0.99719 5
1883 2 3.6 -7.8 0 0 0 0 1 5
1917 2 3.6 -7.6 0 0 0 0 1 5
1951 2 3.6 -7.4 0 0 0 0 1.00116 5
1884 2 3.8 -7.8 0 0 0 0 1 5
1918 2 3.8 -7.6 0 0 0 0 1 5
1952 2 3.8 -7.4 0 0 0 0 1.01408 5
1885 2 4 -7.8 0 0 0 0 1 5
1886 2 4.2 -7.8 0 0 0 0 1 5
1919 2 4 -7.6 0 0 0 0 1 5
1920 2 4.2 -7.6 0 0 0 0 1 5
1953 2 4 -7.4 0 0 0 0 1.02336 5
1954 2 4.2 -7.4 0 0 0 0 1.02889 5
1887 2 4.4 -7.8 0 0 0 0 1 5
1888 2 4.6 -7.8 0 0 0 0 1 5
1921 2 4.4 -7.6 0 0 0 0 1 5
1922 2 4.6 -7.6 0 0 0 0 1 5
1955 2 4.4 -7.4 0 0 0 0 1.03023 5
1956 2 4.6 -7.4 0 0 0 0 1.02687 5
1889 2 4.8 -7.8 0 0 0 0 1 5
1890 2 5 -7.8 0 0 0 0 1 5
1923 2 4.8 -7.6 0 0 0 0 1 5
1924 2 5 -7.6 0 0 0 0 1 5
1957 2 4.8 -7.4 0 0 0 0 1.02652 5
1958 2 5 -7.4 0 0 0 0 1.02641 5
1891 2 5.2 -7.8 0 0 0 0 1 5
1892 2 5.4 -7.8 0 0 0 0 1 5
1925 2 5.2 -7.6 0 0 0 0 1 5
1926 2 5.4 -7.6 0 0 0 0 1 5
1959 2 5.2 -7.4 0 0 0 0 1.02645 5
1960 2 5.4 -7.4 0 0 0 0 1.02644 5
1893 2 5.6 -7.8 0 0 0 0 1 5
1927 2 5.6 -7.6 0 0 0 0 1 5
1961 2 5.6 -7.4 0 0 0 0 1.02658 5
1894 2 5.8 -7.8 0 0 0 0 1 5
1928 2 5.8 -7.6 0 0 0 0 1 5
1962 2 5.8 -7.4 0 0 0 0 1.02671 5
1895 2 6 -7.8 0 0 0 0 1 5
1929 2 6 -7.6 0 0 0 0 1 5
1963 2 6 -7.4 0 0 0 0 1.02667 5
1896 2 6.2 -7.8 0 0 0 0 1 5
1897 2 6.4 -7.8 0 0 0 0 1 5
1930 2 6.2 -7.6 0 0 0 0 1 5
1931 2 6.4 -7.6 0 0 0 0 1 5
1964 2 6.2 -7.4 0 0 0 0 1.02683 5
1965 2 6.4 -7.4 0 0 0 0 1.02691 5
1898 2 6.6 -7.8 0 0 0 0 1 5
1899 2 6.8 -7.8 0 0 0 0 1 5
1932 2 6.6 -7.6 0 0 0 0 1 5
1933 2 6.8 -7.6 0 0 0 0 1 5
1966 2 6.6 -7.4 0 0 0 0 1.02698 5
1967 2 6.8 -7.4 0 0 0 0 1.02717 5
1900 2 7 -7.8 0 0 0 0 1 5
1901 2 7.2 -7.8 0 0 0 0 1 5
1934 2 7 -7.6 0 0 0 0 1 5
1935 2 7.2 -7.6 0 0 0 0 1 5
1968 2 7 -7.4 0 0 0 0 1.02726 5
1969 2 7.2 -7.4 0 0 0 0 1.02733 5
1977 2 2 -7.2 0 0 0 0 1.01134 5
2011 2 2 -7 0 0 0 0 1.01144 5
1978 2 2.2 -7.2 0 0 0 0 1.00431 5
1979 2 2.4 -7.2 0 0 0 0 1.00114 5
2012 2 2.2 -7 0 0 0 0 1.00425 5
2013 2 2.4 -7 0 0 0 0 1.00084 5
1980 2 2.6 -7.2 0 0 0 0 0.999335 5
1981 2 2.8 -7.2 0 0 0 0 0.998602 5
2014 2 2.6 -7 0 0 0 0 0.999718 5
2015 2 2.8 -7 0 0 0 0 0.999483 5
1982 2 3 -7.2 0 0 0 0 1.00133 5
2016 2 3 -7 0 0 0 0 1.0005 5
1983 2 3.2 -7.2 0 0 0 0 0.999896 5
2017 2 3.2 -7 0 0 0 0 0.999866 5
1984 2 3.4 -7.2 0 0 0 0 0.998306 5
2018 2 3.4 -7 0 0 0 0 0.999424 5
1985 2 3.6 -7.2 0 0 0 0 1.00209 5
2019 2 3.6 -7 0 0 0 0 1.00228 5
1986 2 3.8 -7.2 0 0 0 0 1.01048 5
2020 2 3.8 -7 0 0 0 0 1.00958 5
1987 2 4 -7.2 0 0 0 0 1.01826 5
1988 2 4.2 -7.2 0 0 0 0 1.02657 5
2021 2 4 -7 0 0 0 0 1.01722 5
2022 2 4.2 -7 0 0 0 0 1.02615 5
1989 2 4.4 -7.2 0 0 0 0 1.03157 5
1990 2 4.6 -7.2 0 0 0 0 1.02811 5
2023 2 4.4 -7 0 0 0 0 1.03172 5
2024 2 4.6 -7 0 0 0 0 1.02882 5
1991 2 4.8 -7.2 0 0 0 0 1.02707 5
1992 2 5 -7.2 0 0 0 0 1.02701 5
2025 2 4.8 -7 0 0 0 0 1.0275 5
2026 2 5 -7 0 0 0 0 1.02743 5
1993 2 5.2 -7.2 0 0 0 0 1.02699 5
1994 2 5.4 -7.2 0 0 0 0 1.02694 5
2027 2 5.2 -7 0 0 0 0 1.02739 5
2028 2 5.4 -7 0 0 0 0 1.02733 5
1995 2 5.6 -7.2 0 0 0 0 1.02709 5
2029 2 5.6 -7 0 0 0 0 1.02744 5
1996 2 5.8 -7.2 0 0 0 0 1.02718 5
2030 2 5.8 -7 0 0 0 0 1.02748 5
1997 2 6 -7.2 0 0 0 0 1.02716 5
2031 2 6 -7 0 0 0 0 1.02749 5
1998 2 6.2 -7.2 0 0 0 0 1.02722 5
1999 2 6.4 -7.2 0 0 0 0 1.02727 5
2032 2 6.2 -7 0 0 0 0 1.02753 5
2033 2 6.4 -7 0 0 0 0 1.02758 5
2000 2 6.6 -7.2 0 0 0 0 1.0274 5
2001 2 6.8 -7.2 0 0 0 0 1.02753 5
2034 2 6.6 -7 0 0 0 0 1.02773 5
2035 2 6.8 -7 0 0 0 0 1.02785 5
2002 2 7 -7.2 0 0 0 0 1.02762 5
2003 2 7.2 -7.2 0 0 0 0 1.02772 5
2036 2 7 -7 0 0 0 0 1.02794 5
2037 2 7.2 -7 0 0 0 0 1.02804 5
12600 1 2.18573 -6.74459 0.02 0 -0.00272409 -0.000296932 1 2
12601 1 2.38756 -6.76349 0.02 0 -0.00259616 -0.000446192 1 2
12602 1 2.21947 -6.57221 0.02 0 -0.000166206 0.000239438 1 2
12603 1 2.42426 -6.57855 0.02 0 0.000245805 0.000596232 1 2
12604 1 2.60071 -6.76677 0.02 0 -0.00306296 -0.000485798 1 2
12605 1 2.80499 -6.74921 0.02 0 -0.00275066 -0.00042848 1 2
12606 1 2.62268 -6.57855 0.02 0 -3.49589e-06 0.000427964 1 2
12607 1 2.81786 -6.55859 0.02 0 0.000116339 0.000379262 1 2
12608 1 2.9949 -6.7407 0.02 0 -0.00268911 -0.000541312 1 2
12609 1 3.18986 -6.76847 0.02 0 -0.0032166 -0.000509922 1 2
12610 1 3.01975 -6.56058 0.02 0 0.000139966 0.000511716 1 2
12611 1 3.21268 -6.576 0.02 0 8.30437e-05 0.000490684 1 2
12612 1 3.39368 -6.74592 0.02 0 -0.00257433 -0.000355593 1 2
12614 1 3.39751 -6.55361 0.02 0 0.000170266 0.000342355 1 2
12613 1 3.59166 -6.74089 0.02 0 -0.00318546 -0.00017192 1 2
12615 1 3.58954 -6.56055 0.02 0 -0.00025215 0.000335492 1 2
12616 1 3.78797 -6.75367 0.02 0 -0.00647679 -0.000315973 1 2
12618 1 3.80085 -6.5699 0.02 0 -0.00323068 -0.000101827 1 2
12133 1 3.99916 -6.58243 0.02 0 -0.0045613 0.000267927 1.01711 2
12617 1 3.99076 -6.75368 0.02 0 -0.011787 0.000418326 1 2
12132 1 4.02929 -6.80688 0.00436615 -0.00141985 -5.75105e-05 -2.00138e-05 1.03395 0
12134 1 4.06244 -6.61696 0.0112123 0.0014916 -0.00062547 0.000174463 1.02967 0
12135 1 4.1802 -6.75379 0.00592742 -0.00041402 -9.65022e-05 9.62125e-05 1.0376 0
12137 1 4.18219 -6.49417 0.0106754 0.0026631 -0.00016956 -8.95143e-05 1.03434 0
12136 1 4.28499 -6.61331 0.00917076 0.00168586 -9.22197e-05 2.44783e-05 1.03396 0
12138 1 4.3643 -6.48645 0.0115739 0.00247533 -1.35528e-05 1.09644e-05 1.03163 0
12287 1 4.50994 -6.56085 0.0101182 0.00173906 1.572e-05 1.2162e-05 1.02895 0
12288 1 4.34541 -6.76645 0.00507282 -0.000468798 -5.54767e-06 1.51214e-05 1.03534 0
12291 1 4.71381 -6.55742 0.00893132 0.00160196 1.61153e-05 2.63843e-06 1.02765 0
12292 1 4.48993 -6.71696 0.00641372 0.000483124 1.56259e-05 5.24505e-06 1.02976 0
12295 1 4.63154 -6.70995 0.00591892 0.000516966 1.52822e-05 1.50092e-06 1.02811 0
12296 1 4.85377 -6.56345 0.00788656 0.00131193 1.33849e-05 -2.8938e-06 1.02754 0
11882 1 4.75589 -6.77869 0.0036432 5.41912e-05 1.26728e-05 -2.35187e-06 1.02854 0
11880 1 5.00995 -6.54144 0.00738468 0.00124306 1.05153e-05 -6.22541e-06 1.02752 0
11887 1 4.91739 -6.7087 0.00436064 0.000444867 1.21613e-05 -4.36325e-06 1.02749 0
11891 1 5.12678 -6.63061 0.00515781 0.000696098 8.7132e-06 -6.88582e-06 1.0272 0
11894 1 5.28338 -6.58004 0.00557607 0.000810395 3.3247e-06 -7.60798e-06 1.0271 0
11544 1 5.05602 -6.79872 0.00243869 -0.00011451 8.39174e-06 -4.22989e-06 1.02837 0
11552 1 5.26289 -6.74772 0.00272517 0.000111002 4.62251e-06 -4.8318e-06 1.02762 0
11895 1 5.43243 -6.57462 0.00523697 0.00076912 -2.28439e-06 -7.1e-06 1.027 0
11547 1 5.5539 -6.62916 0.00405283 0.000552651 -4.96369e-06 -5.51047e-06 1.02691 0
11559 1 5.71831 -6.51567 0.00543034 0.000825629 -1.30226e-05 -5.96318e-06 1.02702 0
11164 1 5.43406 -6.78782 0.00197026 -0.000104752 6.99337e-07 -2.98571e-06 1.028 0
11172 1 5.70133 -6.65871 0.00330492 0.000410134 -7.51554e-06 -4.1233e-06 1.02697 0
11323 1 5.70521 -6.81021 0.0015061 -0.00018672 -3.19628e-06 -7.22124e-07 1.02824 0
11556 1 5.98094 -6.57413 0.00418646 0.000584597 -1.57808e-05 -3.40529e-06 1.02695 0
10850 1 5.88375 -6.69318 0.00258712 0.000284841 -9.27395e-06 -2.36476e-06 1.02705 0
10507 1 6.01085 -6.79365 0.00143981 -0.000150405 -6.95809e-06 3.40731e-07 1.02805 0
10857 1 6.18073 -6.6219 0.00329879 0.000391712 -1.55593e-05 -1.39795e-06 1.02706 0
11322 1 6.3628 -6.5904 0.00359902 0.000405261 -1.82294e-05 -2.45132e-07 1.02713 0
10519 1 6.20991 -6.76545 0.0016102 -8.01701e-05 -9.23724e-06 5.66315e-07 1.02793 0
10846 1 6.51829 -6.55098 0.00402228 0.0004284 -2.05486e-05 9.59931e-07 1.02719 0
10189 1 6.38873 -6.74929 0.00169489 -5.34425e-05 -1.08125e-05 1.23173e-06 1.02784 0
10862 1 6.64229 -6.60473 0.00329537 0.000332937 -1.8411e-05 1.66444e-06 1.02726 0
3109 1 6.55732 -6.77621 0.00143558 -0.000173942 -1.02323e-05 2.12544e-06 1.02822 0
10511 1 6.78427 -6.5895 0.00344561 0.000322586 -1.92422e-05 2.52574e-06 1.02732 0
10503 1 6.93255 -6.58946 0.00341791 0.000292386 -1.91387e-05 3.21116e-06 1.02739 0
3113 1 6.7545 -6.77105 0.00146266 -0.000161934 -1.0672e-05 2.58679e-06 1.02829 0
3116 1 6.9467 -6.76752 0.00147905 -0.00016722 -1.08177e-05 2.92352e-06 1.02833 0
10174 1 7.08451 -6.5823 0.00350096 0.00027147 -1.91242e-05 3.73743e-06 1.02744 0
10178 1 7.22961 -6.60254 0.00325392 0.000224961 -1.77657e-05 3.81076e-06 1.02752 0
12203 1 5.37136 -0.00960684 0.0142807 0.000382173 2.74176e-05 -1.17702e-05 1.02824 0
3117 1 7.13659 -6.77365 0.00143502 -0.000205906 -1.03603e-05 3.04248e-06 1.02847 0
3118 1 7.33203 -6.766 0.00151869 -0.000205018 -1.03385e-05 3.11421e-06 1.02852 0
12619 1 2.17746 -6.40575 0.02 0 -6.56947e-06 -1.32993e-06 1 2
12620 1 2.40148 -6.39862 0.02 0 0.000177705 0.000192508 1 2
12621 1 2.19885 -6.22649 0.02 0 7.27225e-07 1.05564e-06 1 2
12622 1 2.41696 -6.21801 0.02 0 1.4786e-05 2.34917e-05 1 2
12623 1 2.60749 -6.38915 0.02 0 0.000122066 0.000141438 1 2
12624 1 2.80551 -6.36834 0.02 0 9.27401e-05 0.000114472 1 2
12625 1 2.62266 -6.18855 0.02 0 6.72044e-06 1.1967e-05 1 2
12626 1 2.82627 -6.18143 0.02 0 5.61999e-06 1.1234e-05 1 2
12627 1 3.01061 -6.38259 0.02 0 0.000103602 0.000138069 1 2
12628 1 3.22428 -6.38716 0.02 0 0.000107908 0.000156983 1 2
12629 1 3.03347 -6.20222 0.02 0 7.79732e-06 1.55803e-05 1 2
12630 1 3.2422 -6.20607 0.02 0 8.48424e-06 1.86381e-05 1 2
12631 1 3.44448 -6.37166 0.02 0 7.7068e-05 0.000151313 1 2
12632 1 3.65685 -6.38884 0.02 0 -0.00103092 0.000189319 1 2
12633 1 3.45084 -6.19175 0.02 0 -6.25488e-06 1.68448e-05 1 2
12634 1 3.66961 -6.20482 0.02 0 -0.00102407 0.000128551 1 2
12139 1 4.01603 -6.41171 0.0112212 0.000892088 -1.37062e-05 -1.80121e-05 1.02817 0
12140 1 3.99993 -6.20751 0.02 0 -0.00595031 0.00123884 1.02383 2
12635 1 3.85976 -6.38994 0.02 0 -0.00503954 0.000351779 1 2
12636 1 3.88175 -6.19657 0.02 0 -0.00439132 0.000709249 1 2
12141 1 4.02493 -6.37285 0.0112103 0.00107167 2.60367e-05 -5.11979e-05 1.02872 0
12289 1 4.46806 -6.37146 0.0129191 0.00293643 8.74857e-06 2.44301e-05 1.02926 0
12142 1 4.15575 -6.20651 0.012097 0.00283435 0.00022442 -1.0452e-06 1.03314 0
12143 1 4.26103 -6.34056 0.0120057 0.00294815 5.47924e-05 -1.26085e-05 1.03319 0
12144 1 4.25705 -6.10013 0.0124965 0.0036995 3.37273e-05 4.90132e-05 1.03251 0
12302 1 4.46814 -6.0847 0.0144052 0.00404917 -2.21863e-05 1.77817e-06 1.02859 0
12303 1 4.3769 -6.2216 0.0138017 0.00354774 2.00697e-05 1.75902e-05 1.03035 0
12299 1 4.56468 -6.24545 0.0135914 0.00350053 -1.20856e-05 1.29049e-05 1.02824 0
12290 1 4.63133 -6.43162 0.0115025 0.0024393 1.07666e-05 8.85438e-06 1.02811 0
12293 1 4.73554 -6.29611 0.0123405 0.00302782 -7.0307e-07 2.89793e-06 1.02807 0
12300 1 4.67431 -6.13089 0.0137603 0.0039164 -1.43505e-05 -2.12515e-07 1.02791 0
12305 1 4.84341 -6.14319 0.0128847 0.00360879 -5.75055e-06 -4.2266e-06 1.02808 0
12294 1 4.85555 -6.37563 0.0107356 0.002353 6.03307e-06 -2.27814e-06 1.02801 0
12306 1 4.98125 -6.18015 0.0119413 0.00312517 -2.21144e-06 -6.35405e-06 1.02806 0
12297 1 5.00432 -6.37447 0.00987701 0.00206951 5.2755e-06 -6.29035e-06 1.02793 0
12298 1 5.11703 -6.24992 0.0106808 0.00249346 -1.3346e-06 -7.49729e-06 1.02789 0
11902 1 5.21165 -6.0892 0.0116725 0.00303676 -8.2786e-06 -7.98072e-06 1.02776 0
11881 1 5.16978 -6.43686 0.00824587 0.00152688 3.5828e-06 -8.17602e-06 1.02757 0
11883 1 5.27073 -6.25449 0.00999165 0.00218313 -5.45303e-06 -8.34351e-06 1.02767 0
12310 1 5.36356 -6.02745 0.0116249 0.00295996 -1.41236e-05 -7.9713e-06 1.02758 0
11886 1 5.33724 -6.40373 0.00800879 0.00146992 -3.44285e-06 -8.3825e-06 1.0274 0
11884 1 5.41399 -6.19451 0.0100616 0.00220242 -1.22166e-05 -7.99505e-06 1.02755 0
11890 1 5.49111 -6.40474 0.00747442 0.0013126 -9.21325e-06 -7.92155e-06 1.02728 0
11888 1 5.56326 -6.22804 0.00925711 0.00184937 -1.63088e-05 -7.83681e-06 1.02745 0
11889 1 5.71299 -6.15598 0.00955998 0.00188837 -2.16771e-05 -7.28249e-06 1.02744 0
11893 1 5.64143 -6.37629 0.00739345 0.00127702 -1.50277e-05 -7.19891e-06 1.02726 0
11560 1 6.12205 -6.49658 0.00503247 0.00067475 -2.04111e-05 -2.66985e-06 1.02711 0
11898 1 5.79679 -6.32834 0.0075756 0.0012765 -2.02114e-05 -6.28481e-06 1.02731 0
11896 1 5.88468 -6.18179 0.00892842 0.00159141 -2.43678e-05 -6.0302e-06 1.02742 0
11897 1 6.05988 -6.15994 0.00882047 0.00145238 -2.63604e-05 -4.40014e-06 1.02743 0
11899 1 5.99254 -6.32507 0.00722815 0.00111961 -2.34925e-05 -4.64104e-06 1.02732 0
11551 1 5.88423 -6.46726 0.00574899 0.00085865 -1.82074e-05 -4.93251e-06 1.02709 0
11548 1 6.15761 -6.34364 0.00676955 0.000955873 -2.46775e-05 -2.83651e-06 1.02731 0
11546 1 6.23048 -6.17761 0.00839398 0.00123667 -2.71207e-05 -2.40455e-06 1.02744 0
11553 1 6.34615 -6.27734 0.00724659 0.00094327 -2.66043e-05 -8.22992e-07 1.02739 0
11162 1 6.32207 -6.44006 0.00548789 0.000681205 -2.34597e-05 -9.04427e-07 1.02722 0
11549 1 6.46974 -6.10112 0.00882875 0.00115527 -2.76018e-05 4.30271e-07 1.02749 0
11554 1 6.51575 -6.24568 0.00740089 0.000875021 -2.72722e-05 1.14917e-06 1.02745 0
11167 1 6.52343 -6.39752 0.00579771 0.000648383 -2.50974e-05 1.13124e-06 1.02732 0
11555 1 6.68743 -6.21286 0.00759428 0.000804728 -2.75731e-05 3.01152e-06 1.02752 0
11561 1 6.84806 -6.17519 0.00786415 0.000739025 -2.76998e-05 4.63357e-06 1.02758 0
11163 1 6.6979 -6.38203 0.0058539 0.000591763 -2.55722e-05 2.75786e-06 1.02739 0
11562 1 7.06499 -6.09289 0.00853701 0.000668174 -2.73753e-05 6.34887e-06 1.02764 0
11168 1 6.96782 -6.25934 0.00700004 0.000576855 -2.69617e-05 5.25105e-06 1.02757 0
10845 1 6.84666 -6.41266 0.00546072 0.000500966 -2.49053e-05 3.74129e-06 1.0274 0
11166 1 7.14837 -6.22816 0.00726053 0.000500108 -2.66422e-05 6.29741e-06 1.02764 0
11324 1 7.01883 -6.41641 0.00537917 0.000429984 -2.44866e-05 4.68233e-06 1.02745 0
10849 1 7.18139 -6.38958 0.00564217 0.000385372 -2.4407e-05 5.47734e-06 1.02753 0
11171 1 7.31977 -6.21123 0.00740886 0.000413939 -2.57645e-05 6.94646e-06 1.02769 0
10854 1 7.32547 -6.41936 0.00532907 0.000322083 -2.3039e-05 5.54434e-06 1.02755 0
11403 1 7.26186 -0.2301 0.0140176 -1.82505e-05 2.20936e-05 -7.4432e-08 1.02718 0
12637 1 2.03506 -6.03328 0.02 0 0 0 1 2
12640 1 2.07429 -5.83368 0.02 0 0 0 1 2
12638 1 2.22673 -6.03474 0.02 0 4.62563e-08 1.59014e-07 1 2
12641 1 2.26843 -5.82876 0.02 0 1.97307e-10 9.94017e-10 1 2
12639 1 2.41904 -6.02704 0.02 0 1.7388e-07 3.93363e-07 1 2
12642 1 2.46359 -5.82346 0.02 0 7.21665e-11 4.92356e-10 1 2
12643 1 2.61696 -5.99289 0.02 0 3.37128e-08 8.12425e-08 1 2
12644 1 2.82538 -5.99456 0.02 0 2.8822e-08 7.9425e-08 1 2
12645 1 2.67007 -5.803 0.02 0 2.34632e-11 1.77748e-10 1 2
12646 1 2.88004 -5.8133 0.02 0 3.75513e-11 1.87851e-10 1 2
12647 1 3.03824 -6.01828 0.02 0 7.51767e-08 2.46271e-07 1 2
12648 1 3.26072 -6.02829 0.02 0 1.09207e-07 3.93412e-07 1 2
12649 1 3.08959 -5.8406 0.02 0 1.43061e-10 7.46841e-10 1 2
12651 1 3.10378 -5.65807 0.02 0 0 0 1 2
12650 1 3.30737 -5.85757 0.02 0 3.16577e-10 1.5373e-09 1 2
12652 1 3.32534 -5.67806 0.02 0 -1.6233e-12 1.21765e-13 1 2
12653 1 3.5046 -6.02115 0.02 0 -5.36085e-05 3.12783e-06 1 2
12655 1 3.52166 -5.83927 0.02 0 -6.1555e-05 3.28113e-06 1 2
12657 1 3.54611 -5.65362 0.02 0 -8.65618e-05 5.42426e-06 1 2
12654 1 3.71733 -6.02201 0.02 0 -0.00131935 0.000166028 1 2
12656 1 3.73948 -5.83516 0.02 0 -0.0012931 0.000101338 1 2
12145 1 4.00896 -6.04829 0.012773 0.00125591 2.21683e-05 4.89123e-07 1.02327 0
12658 1 3.92215 -6.00255 0.02 0 -0.00503747 0.00103734 1 2
12659 1 3.95606 -5.8096 0.02 0 -0.00504029 0.000603549 1 2
12146 1 3.99984 -5.83763 0.02 0 -0.00343453 0.000448516 1.01987 2
12301 1 4.59862 -5.97756 0.0144161 0.00445478 -1.95998e-05 -9.58148e-06 1.02766 0
12147 1 4.15574 -5.94824 0.0119345 0.00240551 -0.000133668 0.000104425 1.03155 0
12148 1 4.18036 -5.7521 0.0116301 0.00286172 -0.000147638 -6.79138e-05 1.03117 0
12149 1 4.33132 -5.96253 0.0134198 0.0040379 -5.41077e-05 6.92799e-06 1.0307 0
12150 1 4.32901 -5.79159 0.0129422 0.00398857 -6.73162e-05 -2.50399e-05 1.03032 0
12315 1 4.47821 -5.87576 0.0144294 0.00445452 -2.52384e-05 -1.51114e-05 1.02803 0
12316 1 4.4952 -5.70138 0.0141534 0.00450744 -1.22464e-05 -1.77141e-05 1.02746 0
12304 1 4.76362 -5.98079 0.0139266 0.0043776 -1.27563e-05 -8.07602e-06 1.0278 0
12307 1 4.92892 -5.95513 0.0134186 0.00420923 -8.51582e-06 -8.61153e-06 1.02794 0
12313 1 4.6478 -5.79705 0.0143758 0.0047839 -1.33285e-05 -1.48995e-05 1.02732 0
12314 1 4.63386 -5.6016 0.0141776 0.00477878 -6.93088e-06 -1.43384e-05 1.02694 0
12317 1 4.78769 -5.65347 0.0141583 0.00491453 -8.19538e-06 -1.19684e-05 1.02738 0
12318 1 4.81561 -5.82331 0.0140484 0.00472367 -1.0594e-05 -1.13166e-05 1.02767 0
12319 1 4.94819 -5.71686 0.0139102 0.00474249 -8.96063e-06 -9.57373e-06 1.0277 0
12309 1 5.06671 -6.02329 0.0126186 0.00364637 -6.92682e-06 -8.06915e-06 1.02791 0
12308 1 5.06198 -5.82896 0.0134641 0.00430449 -9.74074e-06 -8.57613e-06 1.02778 0
12311 1 5.21293 -5.90716 0.0127859 0.00372165 -1.1957e-05 -7.8919e-06 1.02767 0
12320 1 5.08412 -5.60783 0.0139167 0.00464961 -1.12208e-05 -7.1484e-06 1.02761 0
12323 1 5.20213 -5.71257 0.0135691 0.00424408 -1.41677e-05 -7.10092e-06 1.02759 0
12312 1 5.34551 -5.80864 0.0129532 0.00369434 -1.71919e-05 -7.33013e-06 1.02753 0
12324 1 5.34462 -5.61485 0.013689 0.00409536 -1.92782e-05 -6.28776e-06 1.02748 0
11885 1 5.55867 -6.05199 0.0108793 0.00248675 -1.94941e-05 -7.8408e-06 1.02748 0
11903 1 5.47645 -5.9064 0.0121289 0.00312855 -1.94709e-05 -7.77093e-06 1.02749 0
11901 1 5.49009 -5.70378 0.0131693 0.0036098 -2.20129e-05 -7.10471e-06 1.02746 0
11904 1 5.6164 -5.81844 0.0123646 0.0030754 -2.34855e-05 -7.64235e-06 1.02745 0
11921 1 5.61392 -5.58768 0.0134957 0.00355571 -2.48658e-05 -6.69297e-06 1.02743 0
11906 1 5.70279 -5.95467 0.011283 0.0025372 -2.38176e-05 -7.57682e-06 1.02744 0
11905 1 5.73411 -5.71058 0.0127714 0.00308029 -2.55021e-05 -7.22394e-06 1.02744 0
11912 1 5.85689 -5.6073 0.0131438 0.00302594 -2.58481e-05 -6.49822e-06 1.02743 0
11892 1 5.84719 -6.01623 0.0104976 0.00211499 -2.53097e-05 -6.71336e-06 1.02743 0
11900 1 6.18623 -6.01374 0.00994646 0.00164983 -2.70316e-05 -3.3996e-06 1.02745 0
11911 1 6.00918 -5.9992 0.0103419 0.00192178 -2.65628e-05 -5.43992e-06 1.02743 0
11907 1 5.84972 -5.8294 0.0118788 0.00259648 -2.59485e-05 -6.9943e-06 1.02743 0
11910 1 6.01448 -5.83613 0.0115729 0.00229502 -2.63101e-05 -5.72599e-06 1.02743 0
11909 1 6.00498 -5.67484 0.0126098 0.0026291 -2.55976e-05 -5.74512e-06 1.02743 0
11913 1 6.16738 -5.66427 0.0124847 0.00236205 -2.46565e-05 -4.14984e-06 1.02743 0
11914 1 6.18099 -5.84498 0.0112775 0.00201598 -2.60723e-05 -3.95733e-06 1.02743 0
11916 1 6.32889 -5.68823 0.0121689 0.00206105 -2.40697e-05 -2.24314e-06 1.02744 0
11545 1 6.35226 -6.01551 0.00971636 0.0014439 -2.70996e-05 -1.26175e-06 1.02747 0
11915 1 6.35561 -5.8539 0.0110017 0.00174917 -2.57559e-05 -1.61766e-06 1.02745 0
11919 1 6.50872 -5.75298 0.0115729 0.00169892 -2.44306e-05 2.24952e-07 1.02745 0
11550 1 6.64164 -6.04975 0.00913476 0.00107994 -2.74301e-05 2.49204e-06 1.02752 0
11563 1 6.5407 -5.9148 0.0103464 0.00140789 -2.62186e-05 9.56185e-07 1.02748 0
11920 1 6.67297 -5.70942 0.0117426 0.00153022 -2.39575e-05 2.26489e-06 1.02748 0
11570 1 6.81542 -6.01678 0.00930886 0.000966653 -2.73701e-05 4.46202e-06 1.02756 0
11565 1 6.72207 -5.86974 0.0105571 0.00126293 -2.58758e-05 3.19017e-06 1.0275 0
11566 1 6.84657 -5.69339 0.0117514 0.00132017 -2.41318e-05 4.21533e-06 1.0275 0
11557 1 6.98965 -5.96961 0.00962692 0.000864125 -2.70332e-05 6.01303e-06 1.0276 0
11567 1 6.90502 -5.83821 0.0106968 0.00109712 -2.58294e-05 5.09266e-06 1.02754 0
11569 1 7.017 -5.63922 0.0120464 0.00115525 -2.39621e-05 5.66397e-06 1.02753 0
11571 1 7.08253 -5.78585 0.0110228 0.000955759 -2.5502e-05 6.47232e-06 1.02757 0
11161 1 7.25356 -6.05554 0.00883268 0.000560117 -2.65532e-05 7.32931e-06 1.02768 0
11558 1 7.1837 -5.90718 0.0100805 0.000747707 -2.62969e-05 7.21494e-06 1.02763 0
11574 1 7.25024 -5.71481 0.0115025 0.000825948 -2.47331e-05 7.3199e-06 1.02759 0
12184 1 5.37434 -0.357459 0.0143593 0.00054747 2.22049e-05 -2.09514e-05 1.02812 0
12195 1 4.60318 -0.1273 0.0146214 -4.19099e-05 2.45577e-05 -2.19141e-05 1.028 0
11737 1 6.34402 -0.260662 0.0144814 0.000325866 1.94139e-05 -5.34276e-06 1.02769 0
12660 1 2.0974 -5.62887 0.02 0 0 0 1 2
12661 1 2.28838 -5.61698 0.02 0 0 0 1 2
12662 1 2.12226 -5.42296 0.02 0 0 0 1 2
12663 1 2.31907 -5.40365 0.02 0 0 0 1 2
12664 1 2.15553 -5.22229 0.02 0 0 0 1 2
12665 1 2.47924 -5.62036 0.02 0 0 0 1 2
12666 1 2.51407 -5.41859 0.02 0 0 0 1 2
12667 1 2.67786 -5.61019 0.02 0 0 0 1 2
12668 1 2.72042 -5.42183 0.02 0 0 0 1 2
12669 1 2.54937 -5.22191 0.02 0 0 0 1 2
12670 1 2.75089 -5.23061 0.02 0 0 0 1 2
12671 1 2.88589 -5.62586 0.02 0 0 0 1 2
12672 1 2.92835 -5.44246 0.02 0 0 0 1 2
12674 1 2.95748 -5.25608 0.02 0 0 0 1 2
12673 1 3.13222 -5.47541 0.02 0 0 0 1 2
12675 1 3.16788 -5.28876 0.02 0 0 0 1 2
12677 1 3.3408 -5.49466 0.02 0 -1.03855e-13 -4.05014e-13 1 2
12680 1 3.3771 -5.30587 0.02 0 -1.2854e-09 2.58044e-10 1 2
12678 1 3.54795 -5.45929 0.02 0 -7.07176e-05 4.58111e-06 1 2
12681 1 3.58276 -5.25763 0.02 0 -0.000105987 7.12805e-06 1 2
12679 1 3.74863 -5.45691 0.02 0 -0.00144298 7.57399e-05 1 2
12676 1 3.75712 -5.64909 0.02 0 -0.00156519 -4.30087e-06 1 2
12682 1 3.78898 -5.26252 0.02 0 -0.00184765 8.10876e-05 1 2
12683 1 3.95762 -5.61173 0.02 0 -0.00571219 0.000412083 1 2
12684 1 3.95236 -5.41327 0.02 0 -0.0055968 0.000534529 1 2