ITEM: TIMESTEP
62000
ITEM: NUMBER OF ATOMS
10732
ITEM: BOX BOUNDS ff ff pp
0.0000000000000000e+00 2.2000000000000000e+01
-1.0000000000000000e+01 1.0000000000000000e+01
-2.0000000000000000e-02 2.0000000000000000e-02
ITEM: ATOMS id type x y vx vy fx fy c_den c_phase
1501 2 2 -10 0 0 0 0 1 4
1551 2 2 -9.8 0 0 0 0 1 4
1601 2 2 -9.6 0 0 0 0 1 4
1502 2 2.2 -10 0 0 0 0 1 4
1503 2 2.4 -10 0 0 0 0 1 4
1552 2 2.2 -9.8 0 0 0 0 1 4
1553 2 2.4 -9.8 0 0 0 0 1 4
1602 2 2.2 -9.6 0 0 0 0 1 4
1603 2 2.4 -9.6 0 0 0 0 1 4
1504 2 2.6 -10 0 0 0 0 1 4
1505 2 2.8 -10 0 0 0 0 1 4
1554 2 2.6 -9.8 0 0 0 0 1 4
1555 2 2.8 -9.8 0 0 0 0 1 4
1604 2 2.6 -9.6 0 0 0 0 1 4
1605 2 2.8 -9.6 0 0 0 0 1 4
1506 2 3 -10 0 0 0 0 1 4
1507 2 3.2 -10 0 0 0 0 1 4
1556 2 3 -9.8 0 0 0 0 1 4
1557 2 3.2 -9.8 0 0 0 0 1 4
1606 2 3 -9.6 0 0 0 0 1 4
1607 2 3.2 -9.6 0 0 0 0 1 4
1508 2 3.4 -10 0 0 0 0 1 4
1509 2 3.6 -10 0 0 0 0 1 4
1558 2 3.4 -9.8 0 0 0 0 1 4
1559 2 3.6 -9.8 0 0 0 0 1 4
1608 2 3.4 -9.6 0 0 0 0 1 4
1609 2 3.6 -9.6 0 0 0 0 1 4
1510 2 3.8 -10 0 0 0 0 1 4
1560 2 3.8 -9.8 0 0 0 0 1 4
1610 2 3.8 -9.6 0 0 0 0 1 4
1511 2 4 -10 0 0 0 0 1 4
1561 2 4 -9.8 0 0 0 0 1 4
1611 2 4 -9.6 0 0 0 0 1 4
1512 2 4.2 -10 0 0 0 0 1 4
1562 2 4.2 -9.8 0 0 0 0 1 4
1612 2 4.2 -9.6 0 0 0 0 1 4
1513 2 4.4 -10 0 0 0 0 1 4
1514 2 4.6 -10 0 0 0 0 1 4
1563 2 4.4 -9.8 0 0 0 0 1 4
1564 2 4.6 -9.8 0 0 0 0 1 4
1613 2 4.4 -9.6 0 0 0 0 1 4
1614 2 4.6 -9.6 0 0 0 0 1 4
1515 2 4.8 -10 0 0 0 0 1 4
1516 2 5 -10 0 0 0 0 1 4
1565 2 4.8 -9.8 0 0 0 0 1 4
1566 2 5 -9.8 0 0 0 0 1 4
1615 2 4.8 -9.6 0 0 0 0 1 4
1616 2 5 -9.6 0 0 0 0 1 4
1517 2 5.2 -10 0 0 0 0 1 4
1518 2 5.4 -10 0 0 0 0 1 4
1567 2 5.2 -9.8 0 0 0 0 1 4
1568 2 5.4 -9.8 0 0 0 0 1 4
1617 2 5.2 -9.6 0 0 0 0 1 4
1618 2 5.4 -9.6 0 0 0 0 1 4
1519 2 5.6 -10 0 0 0 0 1 4
1520 2 5.8 -10 0 0 0 0 1 4
1569 2 5.6 -9.8 0 0 0 0 1 4
1570 2 5.8 -9.8 0 0 0 0 1 4
1619 2 5.6 -9.6 0 0 0 0 1 4
1620 2 5.8 -9.6 0 0 0 0 1 4
1521 2 6 -10 0 0 0 0 1 4
1522 2 6.2 -10 0 0 0 0 1 4
1571 2 6 -9.8 0 0 0 0 1 4
1572 2 6.2 -9.8 0 0 0 0 1 4
1621 2 6 -9.6 0 0 0 0 1 4
1622 2 6.2 -9.6 0 0 0 0 1 4
1523 2 6.4 -10 0 0 0 0 1 4
1524 2 6.6 -10 0 0 0 0 1 4
1573 2 6.4 -9.8 0 0 0 0 1 4
1574 2 6.6 -9.8 0 0 0 0 1 4
1623 2 6.4 -9.6 0 0 0 0 1 4
1624 2 6.6 -9.6 0 0 0 0 1 4
1525 2 6.8 -10 0 0 0 0 1 4
1526 2 7 -10 0 0 0 0 1 4
1575 2 6.8 -9.8 0 0 0 0 1 4
1576 2 7 -9.8 0 0 0 0 1 4
1625 2 6.8 -9.6 0 0 0 0 1 4
1626 2 7 -9.6 0 0 0 0 1 4
1527 2 7.2 -10 0 0 0 0 1 4
1577 2 7.2 -9.8 0 0 0 0 1 4
1627 2 7.2 -9.6 0 0 0 0 1 4
1528 2 7.4 -10 0 0 0 0 1 4
1529 2 7.6 -10 0 0 0 0 1 4
1578 2 7.4 -9.8 0 0 0 0 1 4
1579 2 7.6 -9.8 0 0 0 0 1 4
1628 2 7.4 -9.6 0 0 0 0 1 4
1629 2 7.6 -9.6 0 0 0 0 1 4
1530 2 7.8 -10 0 0 0 0 1 4
1531 2 8 -10 0 0 0 0 1 4
1580 2 7.8 -9.8 0 0 0 0 1 4
1581 2 8 -9.8 0 0 0 0 1 4
1630 2 7.8 -9.6 0 0 0 0 1 4
1631 2 8 -9.6 0 0 0 0 1 4
1532 2 8.2 -10 0 0 0 0 1 4
1533 2 8.4 -10 0 0 0 0 1 4
1582 2 8.2 -9.8 0 0 0 0 1 4
1583 2 8.4 -9.8 0 0 0 0 1 4
1632 2 8.2 -9.6 0 0 0 0 1 4
1633 2 8.4 -9.6 0 0 0 0 1 4
1534 2 8.6 -10 0 0 0 0 1 4
1535 2 8.8 -10 0 0 0 0 1 4
1584 2 8.6 -9.8 0 0 0 0 1 4
1585 2 8.8 -9.8 0 0 0 0 1 4
1634 2 8.6 -9.6 0 0 0 0 1 4
1635 2 8.8 -9.6 0 0 0 0 1 4
1536 2 9 -10 0 0 0 0 1 4
1537 2 9.2 -10 0 0 0 0 1 4
1586 2 9 -9.8 0 0 0 0 1 4
1587 2 9.2 -9.8 0 0 0 0 1 4
1636 2 9 -9.6 0 0 0 0 1 4
1637 2 9.2 -9.6 0 0 0 0 1 4
1538 2 9.4 -10 0 0 0 0 1 4
1539 2 9.6 -10 0 0 0 0 1 4
1588 2 9.4 -9.8 0 0 0 0 1 4
1589 2 9.6 -9.8 0 0 0 0 1 4
1638 2 9.4 -9.6 0 0 0 0 1 4
1639 2 9.6 -9.6 0 0 0 0 1 4
1540 2 9.8 -10 0 0 0 0 1 4
1590 2 9.8 -9.8 0 0 0 0 1 4
1640 2 9.8 -9.6 0 0 0 0 1 4
1541 2 10 -10 0 0 0 0 1 4
1591 2 10 -9.8 0 0 0 0 1 4
1641 2 10 -9.6 0 0 0 0 1 4
1542 2 10.2 -10 0 0 0 0 1 4
1592 2 10.2 -9.8 0 0 0 0 1 4
1642 2 10.2 -9.6 0 0 0 0 1 4
1543 2 10.4 -10 0 0 0 0 1 4
1593 2 10.4 -9.8 0 0 0 0 1 4
1643 2 10.4 -9.6 0 0 0 0 1 4
1544 2 10.6 -10 0 0 0 0 1 4
1594 2 10.6 -9.8 0 0 0 0 1 4
1644 2 10.6 -9.6 0 0 0 0 1 4
1545 2 10.8 -10 0 0 0 0 1 4
1595 2 10.8 -9.8 0 0 0 0 1 4
1645 2 10.8 -9.6 0 0 0 0 1 4
1651 2 2 -9.4 0 0 0 0 1 4
1701 2 2 -9.2 0 0 0 0 1 4
1652 2 2.2 -9.4 0 0 0 0 1 4
1653 2 2.4 -9.4 0 0 0 0 1 4
1702 2 2.2 -9.2 0 0 0 0 1 4
1703 2 2.4 -9.2 0 0 0 0 1 4
1654 2 2.6 -9.4 0 0 0 0 1 4
1655 2 2.8 -9.4 0 0 0 0 1 4
1704 2 2.6 -9.2 0 0 0 0 1 4
1705 2 2.8 -9.2 0 0 0 0 1 4
1656 2 3 -9.4 0 0 0 0 1 4
1657 2 3.2 -9.4 0 0 0 0 1 4
1706 2 3 -9.2 0 0 0 0 1 4
1707 2 3.2 -9.2 0 0 0 0 1 4
1658 2 3.4 -9.4 0 0 0 0 1 4
1659 2 3.6 -9.4 0 0 0 0 1 4
1708 2 3.4 -9.2 0 0 0 0 1 4
1709 2 3.6 -9.2 0 0 0 0 1 4
1660 2 3.8 -9.4 0 0 0 0 1 4
1710 2 3.8 -9.2 0 0 0 0 1 4
1661 2 4 -9.4 0 0 0 0 1 4
1711 2 4 -9.2 0 0 0 0 1 4
1662 2 4.2 -9.4 0 0 0 0 1 4
1712 2 4.2 -9.2 0 0 0 0 1 4
1663 2 4.4 -9.4 0 0 0 0 1 4
1664 2 4.6 -9.4 0 0 0 0 1 4
1713 2 4.4 -9.2 0 0 0 0 1 4
1714 2 4.6 -9.2 0 0 0 0 1 4
1665 2 4.8 -9.4 0 0 0 0 1 4
1666 2 5 -9.4 0 0 0 0 1 4
1715 2 4.8 -9.2 0 0 0 0 1 4
1716 2 5 -9.2 0 0 0 0 1 4
1667 2 5.2 -9.4 0 0 0 0 1 4
1668 2 5.4 -9.4 0 0 0 0 1 4
1717 2 5.2 -9.2 0 0 0 0 1 4
1718 2 5.4 -9.2 0 0 0 0 1 4
1669 2 5.6 -9.4 0 0 0 0 1 4
1670 2 5.8 -9.4 0 0 0 0 1 4
1719 2 5.6 -9.2 0 0 0 0 1 4
1720 2 5.8 -9.2 0 0 0 0 1 4
1671 2 6 -9.4 0 0 0 0 1 4
1672 2 6.2 -9.4 0 0 0 0 1 4
1721 2 6 -9.2 0 0 0 0 1 4
1722 2 6.2 -9.2 0 0 0 0 1 4
1673 2 6.4 -9.4 0 0 0 0 1 4
1674 2 6.6 -9.4 0 0 0 0 1 4
1723 2 6.4 -9.2 0 0 0 0 1 4
1724 2 6.6 -9.2 0 0 0 0 1 4
1675 2 6.8 -9.4 0 0 0 0 1 4
1676 2 7 -9.4 0 0 0 0 1 4
1725 2 6.8 -9.2 0 0 0 0 1 4
1726 2 7 -9.2 0 0 0 0 1 4
1677 2 7.2 -9.4 0 0 0 0 1 4
1727 2 7.2 -9.2 0 0 0 0 1 4
1678 2 7.4 -9.4 0 0 0 0 1 4
1679 2 7.6 -9.4 0 0 0 0 1 4
1728 2 7.4 -9.2 0 0 0 0 1 4
1729 2 7.6 -9.2 0 0 0 0 1 4
1680 2 7.8 -9.4 0 0 0 0 1 4
1681 2 8 -9.4 0 0 0 0 1 4
1730 2 7.8 -9.2 0 0 0 0 1 4
1731 2 8 -9.2 0 0 0 0 1 4
1682 2 8.2 -9.4 0 0 0 0 1 4
1683 2 8.4 -9.4 0 0 0 0 1 4
1732 2 8.2 -9.2 0 0 0 0 1 4
1733 2 8.4 -9.2 0 0 0 0 1 4
1684 2 8.6 -9.4 0 0 0 0 1 4
1685 2 8.8 -9.4 0 0 0 0 1 4
1734 2 8.6 -9.2 0 0 0 0 1 4
1735 2 8.8 -9.2 0 0 0 0 1 4
1686 2 9 -9.4 0 0 0 0 1 4
1687 2 9.2 -9.4 0 0 0 0 1 4
1736 2 9 -9.2 0 0 0 0 1 4
1737 2 9.2 -9.2 0 0 0 0 1 4
1688 2 9.4 -9.4 0 0 0 0 1 4
1689 2 9.6 -9.4 0 0 0 0 1 4
1738 2 9.4 -9.2 0 0 0 0 1 4
1739 2 9.6 -9.2 0 0 0 0 1 4
1690 2 9.8 -9.4 0 0 0 0 1 4
1740 2 9.8 -9.2 0 0 0 0 1 4
1691 2 10 -9.4 0 0 0 0 1 4
1741 2 10 -9.2 0 0 0 0 1 4
1692 2 10.2 -9.4 0 0 0 0 1 4
1742 2 10.2 -9.2 0 0 0 0 1 4
1693 2 10.4 -9.4 0 0 0 0 1 4
1743 2 10.4 -9.2 0 0 0 0 1 4
1694 2 10.6 -9.4 0 0 0 0 1 4
1744 2 10.6 -9.2 0 0 0 0 1 4
1695 2 10.8 -9.4 0 0 0 0 1 4
1745 2 10.8 -9.2 0 0 0 0 1 4
1751 2 2 -9 0 0 0 0 1 4
1801 2 2 -8.8 0 0 0 0 1 4
1752 2 2.2 -9 0 0 0 0 1 4
1753 2 2.4 -9 0 0 0 0 1 4
1802 2 2.2 -8.8 0 0 0 0 1 4
1803 2 2.4 -8.8 0 0 0 0 1 4
1754 2 2.6 -9 0 0 0 0 1 4
1755 2 2.8 -9 0 0 0 0 1 4
1804 2 2.6 -8.8 0 0 0 0 1 4
1805 2 2.8 -8.8 0 0 0 0 1 4
1756 2 3 -9 0 0 0 0 1 4
1757 2 3.2 -9 0 0 0 0 1 4
1806 2 3 -8.8 0 0 0 0 1 4
1807 2 3.2 -8.8 0 0 0 0 1 4
1758 2 3.4 -9 0 0 0 0 1 4
1759 2 3.6 -9 0 0 0 0 1 4
1808 2 3.4 -8.8 0 0 0 0 1 4
1809 2 3.6 -8.8 0 0 0 0 1 4
1760 2 3.8 -9 0 0 0 0 1 4
1810 2 3.8 -8.8 0 0 0 0 1 4
1761 2 4 -9 0 0 0 0 1 4
1811 2 4 -8.8 0 0 0 0 1 4
1762 2 4.2 -9 0 0 0 0 1 4
1812 2 4.2 -8.8 0 0 0 0 1 4
1763 2 4.4 -9 0 0 0 0 1 4
1764 2 4.6 -9 0 0 0 0 1 4
1813 2 4.4 -8.8 0 0 0 0 1 4
1814 2 4.6 -8.8 0 0 0 0 1 4
1765 2 4.8 -9 0 0 0 0 1 4
1766 2 5 -9 0 0 0 0 1 4
1815 2 4.8 -8.8 0 0 0 0 1 4
1816 2 5 -8.8 0 0 0 0 1 4
1767 2 5.2 -9 0 0 0 0 1 4
1768 2 5.4 -9 0 0 0 0 1 4
1817 2 5.2 -8.8 0 0 0 0 1 4
1818 2 5.4 -8.8 0 0 0 0 1 4
1769 2 5.6 -9 0 0 0 0 1 4
1770 2 5.8 -9 0 0 0 0 1 4
1819 2 5.6 -8.8 0 0 0 0 1 4
1820 2 5.8 -8.8 0 0 0 0 1 4
1771 2 6 -9 0 0 0 0 1 4
1772 2 6.2 -9 0 0 0 0 1 4
1821 2 6 -8.8 0 0 0 0 1 4
1822 2 6.2 -8.8 0 0 0 0 1 4
1773 2 6.4 -9 0 0 0 0 1 4
1774 2 6.6 -9 0 0 0 0 1 4
1823 2 6.4 -8.8 0 0 0 0 1 4
1824 2 6.6 -8.8 0 0 0 0 1 4
1775 2 6.8 -9 0 0 0 0 1 4
1776 2 7 -9 0 0 0 0 1 4
1825 2 6.8 -8.8 0 0 0 0 1 4
1826 2 7 -8.8 0 0 0 0 1 4
1777 2 7.2 -9 0 0 0 0 1 4
1827 2 7.2 -8.8 0 0 0 0 1 4
1778 2 7.4 -9 0 0 0 0 1 4
1779 2 7.6 -9 0 0 0 0 1 4
1828 2 7.4 -8.8 0 0 0 0 1 4
1829 2 7.6 -8.8 0 0 0 0 1 4
1780 2 7.8 -9 0 0 0 0 1 4
1781 2 8 -9 0 0 0 0 1 4
1830 2 7.8 -8.8 0 0 0 0 1 4
1831 2 8 -8.8 0 0 0 0 1 4
1782 2 8.2 -9 0 0 0 0 1 4
1783 2 8.4 -9 0 0 0 0 1 4
1832 2 8.2 -8.8 0 0 0 0 1 4
1833 2 8.4 -8.8 0 0 0 0 1 4
1784 2 8.6 -9 0 0 0 0 1 4
1785 2 8.8 -9 0 0 0 0 1 4
1834 2 8.6 -8.8 0 0 0 0 1 4
1835 2 8.8 -8.8 0 0 0 0 1 4
1786 2 9 -9 0 0 0 0 1 4
1787 2 9.2 -9 0 0 0 0 1 4
1836 2 9 -8.8 0 0 0 0 1 4
1837 2 9.2 -8.8 0 0 0 0 1 4
1788 2 9.4 -9 0 0 0 0 1 4
1789 2 9.6 -9 0 0 0 0 1 4
1838 2 9.4 -8.8 0 0 0 0 1 4
1839 2 9.6 -8.8 0 0 0 0 1 4
1790 2 9.8 -9 0 0 0 0 1 4
1840 2 9.8 -8.8 0 0 0 0 1 4
1791 2 10 -9 0 0 0 0 1 4
1841 2 10 -8.8 0 0 0 0 1 4
1792 2 10.2 -9 0 0 0 0 1 4
1842 2 10.2 -8.8 0 0 0 0 1 4
1793 2 10.4 -9 0 0 0 0 1 4
1843 2 10.4 -8.8 0 0 0 0 1 4
1794 2 10.6 -9 0 0 0 0 1 4
1844 2 10.6 -8.8 0 0 0 0 1 4
1795 2 10.8 -9 0 0 0 0 1 4
1845 2 10.8 -8.8 0 0 0 0 1 4
1851 2 2 -8.6 0 0 0 0 1 4
1901 2 2 -8.4 0 0 0 0 1 4
1852 2 2.2 -8.6 0 0 0 0 1 4
1853 2 2.4 -8.6 0 0 0 0 1 4
1902 2 2.2 -8.4 0 0 0 0 1 4
1903 2 2.4 -8.4 0 0 0 0 1 4
1854 2 2.6 -8.6 0 0 0 0 1 4
1855 2 2.8 -8.6 0 0 0 0 1 4
1904 2 2.6 -8.4 0 0 0 0 1 4
1905 2 2.8 -8.4 0 0 0 0 1 4
1856 2 3 -8.6 0 0 0 0 1 4
1857 2 3.2 -8.6 0 0 0 0 1 4
1906 2 3 -8.4 0 0 0 0 1 4
1907 2 3.2 -8.4 0 0 0 0 1 4
1858 2 3.4 -8.6 0 0 0 0 1 4
1859 2 3.6 -8.6 0 0 0 0 1 4
1908 2 3.4 -8.4 0 0 0 0 1 4
1909 2 3.6 -8.4 0 0 0 0 1 4
1860 2 3.8 -8.6 0 0 0 0 1 4
1910 2 3.8 -8.4 0 0 0 0 1 4
1861 2 4 -8.6 0 0 0 0 1 4
1911 2 4 -8.4 0 0 0 0 1 4
1862 2 4.2 -8.6 0 0 0 0 1 4
1912 2 4.2 -8.4 0 0 0 0 1 4
1863 2 4.4 -8.6 0 0 0 0 1 4
1864 2 4.6 -8.6 0 0 0 0 1 4
1913 2 4.4 -8.4 0 0 0 0 1 4
1914 2 4.6 -8.4 0 0 0 0 1 4
1865 2 4.8 -8.6 0 0 0 0 1 4
1866 2 5 -8.6 0 0 0 0 1 4
1915 2 4.8 -8.4 0 0 0 0 1 4
1916 2 5 -8.4 0 0 0 0 1 4
1867 2 5.2 -8.6 0 0 0 0 1 4
1868 2 5.4 -8.6 0 0 0 0 1 4
1917 2 5.2 -8.4 0 0 0 0 1 4
1918 2 5.4 -8.4 0 0 0 0 1 4
1869 2 5.6 -8.6 0 0 0 0 1 4
1870 2 5.8 -8.6 0 0 0 0 1 4
1919 2 5.6 -8.4 0 0 0 0 1 4
1920 2 5.8 -8.4 0 0 0 0 1 4
1871 2 6 -8.6 0 0 0 0 1 4
1872 2 6.2 -8.6 0 0 0 0 1 4
1921 2 6 -8.4 0 0 0 0 1 4
1922 2 6.2 -8.4 0 0 0 0 1 4
1873 2 6.4 -8.6 0 0 0 0 1 4
1874 2 6.6 -8.6 0 0 0 0 1 4
1923 2 6.4 -8.4 0 0 0 0 1 4
1924 2 6.6 -8.4 0 0 0 0 1 4
1875 2 6.8 -8.6 0 0 0 0 1 4
1876 2 7 -8.6 0 0 0 0 1 4
1925 2 6.8 -8.4 0 0 0 0 1 4
1926 2 7 -8.4 0 0 0 0 1 4
1877 2 7.2 -8.6 0 0 0 0 1 4
1927 2 7.2 -8.4 0 0 0 0 1 4
1878 2 7.4 -8.6 0 0 0 0 1 4
1879 2 7.6 -8.6 0 0 0 0 1 4
1928 2 7.4 -8.4 0 0 0 0 1 4
1929 2 7.6 -8.4 0 0 0 0 1 4
1880 2 7.8 -8.6 0 0 0 0 1 4
1881 2 8 -8.6 0 0 0 0 1 4
1930 2 7.8 -8.4 0 0 0 0 1 4
1931 2 8 -8.4 0 0 0 0 1 4
1882 2 8.2 -8.6 0 0 0 0 1 4
1883 2 8.4 -8.6 0 0 0 0 1 4
1932 2 8.2 -8.4 0 0 0 0 1 4
1933 2 8.4 -8.4 0 0 0 0 1 4
1884 2 8.6 -8.6 0 0 0 0 1 4
1885 2 8.8 -8.6 0 0 0 0 1 4
1934 2 8.6 -8.4 0 0 0 0 1 4
1935 2 8.8 -8.4 0 0 0 0 1 4
1886 2 9 -8.6 0 0 0 0 1 4
1887 2 9.2 -8.6 0 0 0 0 1 4
1936 2 9 -8.4 0 0 0 0 1 4
1937 2 9.2 -8.4 0 0 0 0 1 4
1888 2 9.4 -8.6 0 0 0 0 1 4
1889 2 9.6 -8.6 0 0 0 0 1 4
1938 2 9.4 -8.4 0 0 0 0 1 4
1939 2 9.6 -8.4 0 0 0 0 1 4
1890 2 9.8 -8.6 0 0 0 0 1 4
1940 2 9.8 -8.4 0 0 0 0 1 4
1891 2 10 -8.6 0 0 0 0 1 4
1941 2 10 -8.4 0 0 0 0 1 4
1892 2 10.2 -8.6 0 0 0 0 1 4
1942 2 10.2 -8.4 0 0 0 0 1 4
1893 2 10.4 -8.6 0 0 0 0 1 4
1943 2 10.4 -8.4 0 0 0 0 1 4
1894 2 10.6 -8.6 0 0 0 0 1 4
1944 2 10.6 -8.4 0 0 0 0 1 4
1895 2 10.8 -8.6 0 0 0 0 1 4
1945 2 10.8 -8.4 0 0 0 0 1 4
1951 2 2 -8.2 0 0 0 0 1 4
2001 2 2 -8 0 0 0 0 1 4
1952 2 2.2 -8.2 0 0 0 0 1 4
1953 2 2.4 -8.2 0 0 0 0 1 4
2002 2 2.2 -8 0 0 0 0 1 4
2003 2 2.4 -8 0 0 0 0 1 4
1954 2 2.6 -8.2 0 0 0 0 1 4
1955 2 2.8 -8.2 0 0 0 0 1 4
2004 2 2.6 -8 0 0 0 0 1 4
2005 2 2.8 -8 0 0 0 0 1 4
1956 2 3 -8.2 0 0 0 0 1 4
1957 2 3.2 -8.2 0 0 0 0 1 4
2006 2 3 -8 0 0 0 0 1 4
2007 2 3.2 -8 0 0 0 0 1 4
1958 2 3.4 -8.2 0 0 0 0 1 4
1959 2 3.6 -8.2 0 0 0 0 1 4
2008 2 3.4 -8 0 0 0 0 1 4
2009 2 3.6 -8 0 0 0 0 1 4
1960 2 3.8 -8.2 0 0 0 0 1 4
2010 2 3.8 -8 0 0 0 0 1 4
1961 2 4 -8.2 0 0 0 0 1 4
2011 2 4 -8 0 0 0 0 1 4
1962 2 4.2 -8.2 0 0 0 0 1 4
2012 2 4.2 -8 0 0 0 0 1 4
1963 2 4.4 -8.2 0 0 0 0 1 4
1964 2 4.6 -8.2 0 0 0 0 1 4
2013 2 4.4 -8 0 0 0 0 1 4
2014 2 4.6 -8 0 0 0 0 1 4
1965 2 4.8 -8.2 0 0 0 0 1 4
1966 2 5 -8.2 0 0 0 0 1 4
2015 2 4.8 -8 0 0 0 0 1 4
2016 2 5 -8 0 0 0 0 1 4
1967 2 5.2 -8.2 0 0 0 0 1 4
1968 2 5.4 -8.2 0 0 0 0 1 4
2017 2 5.2 -8 0 0 0 0 1 4
2018 2 5.4 -8 0 0 0 0 1 4
1969 2 5.6 -8.2 0 0 0 0 1 4
1970 2 5.8 -8.2 0 0 0 0 1 4
2019 2 5.6 -8 0 0 0 0 1 4
2020 2 5.8 -8 0 0 0 0 1 4
1971 2 6 -8.2 0 0 0 0 1 4
1972 2 6.2 -8.2 0 0 0 0 1 4
2021 2 6 -8 0 0 0 0 1 4
2022 2 6.2 -8 0 0 0 0 1 4
1973 2 6.4 -8.2 0 0 0 0 1 4
1974 2 6.6 -8.2 0 0 0 0 1 4
2023 2 6.4 -8 0 0 0 0 1 4
2024 2 6.6 -8 0 0 0 0 1 4
1975 2 6.8 -8.2 0 0 0 0 1 4
1976 2 7 -8.2 0 0 0 0 1 4
2025 2 6.8 -8 0 0 0 0 1 4
2026 2 7 -8 0 0 0 0 1 4
1977 2 7.2 -8.2 0 0 0 0 1 4
2027 2 7.2 -8 0 0 0 0 1 4
1978 2 7.4 -8.2 0 0 0 0 1 4
1979 2 7.6 -8.2 0 0 0 0 1 4
2028 2 7.4 -8 0 0 0 0 1 4
2029 2 7.6 -8 0 0 0 0 1 4
1980 2 7.8 -8.2 0 0 0 0 1 4
1981 2 8 -8.2 0 0 0 0 1 4
2030 2 7.8 -8 0 0 0 0 1 4
2031 2 8 -8 0 0 0 0 1 4
1982 2 8.2 -8.2 0 0 0 0 1 4
1983 2 8.4 -8.2 0 0 0 0 1 4
2032 2 8.2 -8 0 0 0 0 1 4
2033 2 8.4 -8 0 0 0 0 1 4
1984 2 8.6 -8.2 0 0 0 0 1 4
1985 2 8.8 -8.2 0 0 0 0 1 4
2034 2 8.6 -8 0 0 0 0 1 4
2035 2 8.8 -8 0 0 0 0 1 4
1986 2 9 -8.2 0 0 0 0 1 4
1987 2 9.2 -8.2 0 0 0 0 1 4
2036 2 9 -8 0 0 0 0 1 4
2037 2 9.2 -8 0 0 0 0 1 4
1988 2 9.4 -8.2 0 0 0 0 1 4
1989 2 9.6 -8.2 0 0 0 0 1 4
2038 2 9.4 -8 0 0 0 0 1 4
2039 2 9.6 -8 0 0 0 0 1 4
1990 2 9.8 -8.2 0 0 0 0 1 4
2040 2 9.8 -8 0 0 0 0 1 4
1991 2 10 -8.2 0 0 0 0 1 4
2041 2 10 -8 0 0 0 0 1 4
1992 2 10.2 -8.2 0 0 0 0 1 4
2042 2 10.2 -8 0 0 0 0 1 4
1993 2 10.4 -8.2 0 0 0 0 1 4
2043 2 10.4 -8 0 0 0 0 1 4
1994 2 10.6 -8.2 0 0 0 0 1 4
2044 2 10.6 -8 0 0 0 0 1 4
1995 2 10.8 -8.2 0 0 0 0 1 4
2045 2 10.8 -8 0 0 0 0 1 4
2051 2 2 -7.8 0 0 0 0 1 4
2101 2 2 -7.6 0 0 0 0 1 4
2151 2 2 -7.4 0 0 0 0 1.00003 4
2052 2 2.2 -7.8 0 0 0 0 1 4
2053 2 2.4 -7.8 0 0 0 0 1 4
2102 2 2.2 -7.6 0 0 0 0 1 4
2103 2 2.4 -7.6 0 0 0 0 1 4
2152 2 2.2 -7.4 0 0 0 0 0.999954 4
2153 2 2.4 -7.4 0 0 0 0 0.999968 4
2054 2 2.6 -7.8 0 0 0 0 1 4
2055 2 2.8 -7.8 0 0 0 0 1 4
2104 2 2.6 -7.6 0 0 0 0 1 4
2105 2 2.8 -7.6 0 0 0 0 1 4
2154 2 2.6 -7.4 0 0 0 0 0.999995 4
2155 2 2.8 -7.4 0 0 0 0 0.999991 4
2056 2 3 -7.8 0 0 0 0 1 4
2057 2 3.2 -7.8 0 0 0 0 1 4
2106 2 3 -7.6 0 0 0 0 1 4
2107 2 3.2 -7.6 0 0 0 0 1 4
2156 2 3 -7.4 0 0 0 0 1.00001 4
2157 2 3.2 -7.4 0 0 0 0 1.00001 4
2058 2 3.4 -7.8 0 0 0 0 1 4
2059 2 3.6 -7.8 0 0 0 0 1 4
2108 2 3.4 -7.6 0 0 0 0 1 4
2109 2 3.6 -7.6 0 0 0 0 1 4
2158 2 3.4 -7.4 0 0 0 0 0.999975 4
2159 2 3.6 -7.4 0 0 0 0 1.00005 4
2060 2 3.8 -7.8 0 0 0 0 1 4
2110 2 3.8 -7.6 0 0 0 0 1 4
2160 2 3.8 -7.4 0 0 0 0 1.0005 4
2061 2 4 -7.8 0 0 0 0 1 4
2111 2 4 -7.6 0 0 0 0 1 4
2161 2 4 -7.4 0 0 0 0 1.00844 4
2062 2 4.2 -7.8 0 0 0 0 1 4
2112 2 4.2 -7.6 0 0 0 0 1 4
2162 2 4.2 -7.4 0 0 0 0 1.00852 4
2063 2 4.4 -7.8 0 0 0 0 1 4
2064 2 4.6 -7.8 0 0 0 0 1 4
2113 2 4.4 -7.6 0 0 0 0 1 4
2114 2 4.6 -7.6 0 0 0 0 1 4
2163 2 4.4 -7.4 0 0 0 0 1.00474 4
2164 2 4.6 -7.4 0 0 0 0 1.00324 4
2065 2 4.8 -7.8 0 0 0 0 1 4
2066 2 5 -7.8 0 0 0 0 1 4
2115 2 4.8 -7.6 0 0 0 0 1 4
2116 2 5 -7.6 0 0 0 0 1 4
2165 2 4.8 -7.4 0 0 0 0 1.00224 4
2166 2 5 -7.4 0 0 0 0 1.00193 4
2067 2 5.2 -7.8 0 0 0 0 1 4
2068 2 5.4 -7.8 0 0 0 0 1 4
2117 2 5.2 -7.6 0 0 0 0 1 4
2118 2 5.4 -7.6 0 0 0 0 1 4
2167 2 5.2 -7.4 0 0 0 0 1.00215 4
2168 2 5.4 -7.4 0 0 0 0 1.00216 4
2069 2 5.6 -7.8 0 0 0 0 1 4
2070 2 5.8 -7.8 0 0 0 0 1 4
2119 2 5.6 -7.6 0 0 0 0 1 4
2120 2 5.8 -7.6 0 0 0 0 1 4
2169 2 5.6 -7.4 0 0 0 0 1.00217 4
2170 2 5.8 -7.4 0 0 0 0 1.00198 4
2071 2 6 -7.8 0 0 0 0 1 4
2072 2 6.2 -7.8 0 0 0 0 1 4
2121 2 6 -7.6 0 0 0 0 1 4
2122 2 6.2 -7.6 0 0 0 0 1 4
2171 2 6 -7.4 0 0 0 0 1.00196 4
2172 2 6.2 -7.4 0 0 0 0 1.00182 4
2073 2 6.4 -7.8 0 0 0 0 1 4
2074 2 6.6 -7.8 0 0 0 0 1 4
2123 2 6.4 -7.6 0 0 0 0 1 4
2124 2 6.6 -7.6 0 0 0 0 1 4
2173 2 6.4 -7.4 0 0 0 0 1.00148 4
2174 2 6.6 -7.4 0 0 0 0 1.00152 4
2075 2 6.8 -7.8 0 0 0 0 1 4
2076 2 7 -7.8 0 0 0 0 1 4
2125 2 6.8 -7.6 0 0 0 0 1 4
2126 2 7 -7.6 0 0 0 0 1 4
2175 2 6.8 -7.4 0 0 0 0 1.00157 4
2176 2 7 -7.4 0 0 0 0 1.00163 4
2077 2 7.2 -7.8 0 0 0 0 1 4
2127 2 7.2 -7.6 0 0 0 0 1 4
2177 2 7.2 -7.4 0 0 0 0 1.00145 4
2078 2 7.4 -7.8 0 0 0 0 1 4
2079 2 7.6 -7.8 0 0 0 0 1 4
2128 2 7.4 -7.6 0 0 0 0 1 4
2129 2 7.6 -7.6 0 0 0 0 1 4
2178 2 7.4 -7.4 0 0 0 0 1.00156 4
2179 2 7.6 -7.4 0 0 0 0 1.00167 4
2080 2 7.8 -7.8 0 0 0 0 1 4
2081 2 8 -7.8 0 0 0 0 1 4
2130 2 7.8 -7.6 0 0 0 0 1 4
2131 2 8 -7.6 0 0 0 0 1 4
2180 2 7.8 -7.4 0 0 0 0 1.00142 4
2181 2 8 -7.4 0 0 0 0 1.00124 4
2082 2 8.2 -7.8 0 0 0 0 1 4
2083 2 8.4 -7.8 0 0 0 0 1 4
2132 2 8.2 -7.6 0 0 0 0 1 4
2133 2 8.4 -7.6 0 0 0 0 1 4
2182 2 8.2 -7.4 0 0 0 0 1.00132 4
2183 2 8.4 -7.4 0 0 0 0 1.00135 4
2084 2 8.6 -7.8 0 0 0 0 1 4
2085 2 8.8 -7.8 0 0 0 0 1 4
2134 2 8.6 -7.6 0 0 0 0 1 4
2135 2 8.8 -7.6 0 0 0 0 1 4
2184 2 8.6 -7.4 0 0 0 0 1.00135 4
2185 2 8.8 -7.4 0 0 0 0 1.00134 4
2086 2 9 -7.8 0 0 0 0 1 4
2087 2 9.2 -7.8 0 0 0 0 1 4
2136 2 9 -7.6 0 0 0 0 1 4
2137 2 9.2 -7.6 0 0 0 0 1 4
2186 2 9 -7.4 0 0 0 0 1.00141 4
2187 2 9.2 -7.4 0 0 0 0 1.00132 4
2088 2 9.4 -7.8 0 0 0 0 1 4
2089 2 9.6 -7.8 0 0 0 0 1 4
2138 2 9.4 -7.6 0 0 0 0 1 4
2139 2 9.6 -7.6 0 0 0 0 1 4
2188 2 9.4 -7.4 0 0 0 0 1.0013 4
2189 2 9.6 -7.4 0 0 0 0 1.0013 4
2090 2 9.8 -7.8 0 0 0 0 1 4
2140 2 9.8 -7.6 0 0 0 0 1 4
2190 2 9.8 -7.4 0 0 0 0 1.00132 4
2091 2 10 -7.8 0 0 0 0 1 4
2141 2 10 -7.6 0 0 0 0 1 4
2191 2 10 -7.4 0 0 0 0 1.0012 4
2092 2 10.2 -7.8 0 0 0 0 1 4
2142 2 10.2 -7.6 0 0 0 0 1 4
2192 2 10.2 -7.4 0 0 0 0 1.00131 4
2093 2 10.4 -7.8 0 0 0 0 1 4
2143 2 10.4 -7.6 0 0 0 0 1 4
2193 2 10.4 -7.4 0 0 0 0 1.00108 4
2094 2 10.6 -7.8 0 0 0 0 1 4
2144 2 10.6 -7.6 0 0 0 0 1 4
2194 2 10.6 -7.4 0 0 0 0 1.00114 4
2095 2 10.8 -7.8 0 0 0 0 1 4
2145 2 10.8 -7.6 0 0 0 0 1 4
2195 2 10.8 -7.4 0 0 0 0 1.00124 4
2201 2 2 -7.2 0 0 0 0 1.00009 4
2251 2 2 -7 0 0 0 0 1.00009 4
2202 2 2.2 -7.2 0 0 0 0 0.999977 4
2203 2 2.4 -7.2 0 0 0 0 0.999977 4
2252 2 2.2 -7 0 0 0 0 0.999988 4
2253 2 2.4 -7 0 0 0 0 0.99998 4
2204 2 2.6 -7.2 0 0 0 0 0.999992 4
2205 2 2.8 -7.2 0 0 0 0 0.999995 4
2254 2 2.6 -7 0 0 0 0 0.999992 4
2255 2 2.8 -7 0 0 0 0 0.999995 4
2206 2 3 -7.2 0 0 0 0 1.00001 4
2207 2 3.2 -7.2 0 0 0 0 1 4
2256 2 3 -7 0 0 0 0 1 4
2257 2 3.2 -7 0 0 0 0 1 4
2208 2 3.4 -7.2 0 0 0 0 0.999997 4
2209 2 3.6 -7.2 0 0 0 0 1.00013 4
2258 2 3.4 -7 0 0 0 0 1.00001 4
2259 2 3.6 -7 0 0 0 0 1.0003 4
2210 2 3.8 -7.2 0 0 0 0 1.00271 4
2260 2 3.8 -7 0 0 0 0 1.00292 4
2211 2 4 -7.2 0 0 0 0 1.00714 4
2261 2 4 -7 0 0 0 0 1.00695 4
2212 2 4.2 -7.2 0 0 0 0 1.00764 4
2262 2 4.2 -7 0 0 0 0 1.00769 4
2213 2 4.4 -7.2 0 0 0 0 1.00527 4
2214 2 4.6 -7.2 0 0 0 0 1.00342 4
2263 2 4.4 -7 0 0 0 0 1.00565 4
2264 2 4.6 -7 0 0 0 0 1.00364 4
2215 2 4.8 -7.2 0 0 0 0 1.00243 4
2216 2 5 -7.2 0 0 0 0 1.00227 4
2265 2 4.8 -7 0 0 0 0 1.00267 4
2266 2 5 -7 0 0 0 0 1.0025 4
2217 2 5.2 -7.2 0 0 0 0 1.00237 4
2218 2 5.4 -7.2 0 0 0 0 1.00241 4
2267 2 5.2 -7 0 0 0 0 1.00257 4
2268 2 5.4 -7 0 0 0 0 1.00261 4
2219 2 5.6 -7.2 0 0 0 0 1.00231 4
2220 2 5.8 -7.2 0 0 0 0 1.00213 4
2269 2 5.6 -7 0 0 0 0 1.00247 4
2270 2 5.8 -7 0 0 0 0 1.00227 4
2221 2 6 -7.2 0 0 0 0 1.00207 4
2222 2 6.2 -7.2 0 0 0 0 1.00196 4
2271 2 6 -7 0 0 0 0 1.00217 4
2272 2 6.2 -7 0 0 0 0 1.00208 4
2223 2 6.4 -7.2 0 0 0 0 1.00172 4
2224 2 6.6 -7.2 0 0 0 0 1.00167 4
2273 2 6.4 -7 0 0 0 0 1.00189 4
2274 2 6.6 -7 0 0 0 0 1.00181 4
2225 2 6.8 -7.2 0 0 0 0 1.00168 4
2226 2 7 -7.2 0 0 0 0 1.00167 4
2275 2 6.8 -7 0 0 0 0 1.00179 4
2276 2 7 -7 0 0 0 0 1.00174 4
2227 2 7.2 -7.2 0 0 0 0 1.00155 4
2277 2 7.2 -7 0 0 0 0 1.00163 4
2228 2 7.4 -7.2 0 0 0 0 1.0016 4
2229 2 7.6 -7.2 0 0 0 0 1.00158 4
2278 2 7.4 -7 0 0 0 0 1.00163 4
2279 2 7.6 -7 0 0 0 0 1.00161 4
2230 2 7.8 -7.2 0 0 0 0 1.00148 4
2231 2 8 -7.2 0 0 0 0 1.0014 4
2280 2 7.8 -7 0 0 0 0 1.00155 4
2281 2 8 -7 0 0 0 0 1.00149 4
2232 2 8.2 -7.2 0 0 0 0 1.0014 4
2233 2 8.4 -7.2 0 0 0 0 1.00143 4
2282 2 8.2 -7 0 0 0 0 1.00148 4
2283 2 8.4 -7 0 0 0 0 1.0015 4
2234 2 8.6 -7.2 0 0 0 0 1.0014 4
2235 2 8.8 -7.2 0 0 0 0 1.0014 4
2284 2 8.6 -7 0 0 0 0 1.00146 4
2285 2 8.8 -7 0 0 0 0 1.00146 4
2236 2 9 -7.2 0 0 0 0 1.00142 4
2237 2 9.2 -7.2 0 0 0 0 1.00137 4
2286 2 9 -7 0 0 0 0 1.00146 4
2287 2 9.2 -7 0 0 0 0 1.00142 4
2238 2 9.4 -7.2 0 0 0 0 1.00135 4
2239 2 9.6 -7.2 0 0 0 0 1.00133 4
2288 2 9.4 -7 0 0 0 0 1.0014 4
2289 2 9.6 -7 0 0 0 0 1.00138 4
2240 2 9.8 -7.2 0 0 0 0 1.00134 4
2290 2 9.8 -7 0 0 0 0 1.00136 4
2241 2 10 -7.2 0 0 0 0 1.00128 4
2291 2 10 -7 0 0 0 0 1.00132 4
2242 2 10.2 -7.2 0 0 0 0 1.00134 4
2292 2 10.2 -7 0 0 0 0 1.00135 4
2243 2 10.4 -7.2 0 0 0 0 1.00125 4
2293 2 10.4 -7 0 0 0 0 1.00129 4
2244 2 10.6 -7.2 0 0 0 0 1.0012 4
2294 2 10.6 -7 0 0 0 0 1.00126 4
2245 2 10.8 -7.2 0 0 0 0 1.00127 4
2295 2 10.8 -7 0 0 0 0 1.0013 4
14312 1 0.975789 -6.76109 0.02 0 0 0 1 1
14313 1 0.996116 -6.57974 0.02 0 0 0 1 1
14314 1 1.18666 -6.74254 0.02 0 0 0 1 1
14316 1 1.21145 -6.56775 0.02 0 0 0 1 1
14315 1 1.39907 -6.7662 0.02 0 0 0 1 1
14317 1 1.41712 -6.57957 0.02 0 0 0 1 1
14318 1 1.62345 -6.76418 0.02 0 0 0 1.00008 1
14320 1 1.62314 -6.58622 0.02 0 0 0 1 1
14319 1 1.83622 -6.75047 0.02 0 0 0 1.00015 1
14321 1 1.83301 -6.5729 0.02 0 0 0 1.00002 1
14322 1 2.03865 -6.74763 0.02 0 0 0 1 1
14323 1 2.04727 -6.56684 0.02 0 0 0 1.00001 1
14324 1 2.24174 -6.75299 0.02 0 0 0 0.999976 1
14325 1 2.44252 -6.73295 0.02 0 0 0 0.999996 1
14326 1 2.25655 -6.57075 0.02 0 0 0 0.999997 1
14327 1 2.46292 -6.55006 0.02 0 0 0 1 1
13985 1 2.84303 -6.73735 0.02 0 0 0 0.999993 1
13986 1 2.8528 -6.55221 0.02 0 0 0 1 1
14328 1 2.64136 -6.75624 0.02 0 0 0 0.999997 1
14329 1 2.65826 -6.56449 0.02 0 0 0 1 1
13987 1 3.04028 -6.76508 0.02 0 0 0 1.00001 1
13989 1 3.05014 -6.57061 0.02 0 0 0 1 1
13988 1 3.22593 -6.7155 0.02 0 0 0 1 1
13990 1 3.25527 -6.53716 0.02 0 0 0 1 1
13991 1 3.41596 -6.76146 0.02 0 0 0 0.999988 1
13992 1 3.61067 -6.74422 0.02 0 0 0 1.00004 1
13993 1 3.44677 -6.56851 0.02 0 0 0 1 1
13994 1 3.63698 -6.54934 0.02 0 0 0 1.00003 1
13995 1 3.80612 -6.74374 0.02 0 0 0 1.00013 1
13996 1 4.0021 -6.75156 0.0102281 0.000864784 4.40326e-05 8.83575e-06 1.00789 0
13997 1 3.82872 -6.55872 0.02 0 0 0 1.00012 1
13998 1 4.00671 -6.56307 0.01548 0.00265607 3.92049e-05 2.15678e-05 1.00792 0
13999 1 4.152 -6.73833 0.00849334 0.00101244 7.15588e-05 3.89115e-06 1.00966 0
14000 1 4.15613 -6.50799 0.014696 0.00328861 7.54236e-05 -3.74976e-06 1.00844 0
14001 1 4.2937 -6.61027 0.0119583 0.00236783 4.80683e-05 -1.80155e-05 1.00681 0
14003 1 4.32685 -6.43588 0.0154851 0.00366999 2.93073e-05 -3.81829e-05 1.00634 0
14002 1 4.3656 -6.74438 0.00740086 0.000940363 5.89037e-06 -3.13682e-06 1.00616 0
14005 1 4.54296 -6.57429 0.0119351 0.00214371 -6.11647e-05 -2.76262e-05 1.00385 0
13631 1 4.53883 -6.75955 0.00630027 0.000790659 -4.47011e-05 -6.68069e-06 1.00417 0
13633 1 4.75257 -6.52123 0.0119586 0.00211938 -7.90439e-05 -2.92378e-05 1.00344 0
13634 1 4.70506 -6.69184 0.00766351 0.0010173 -6.86282e-05 -1.32666e-05 1.003 0
13638 1 4.8546 -6.73233 0.00566569 0.00055765 -5.4709e-05 -3.73721e-06 1.00324 0
13642 1 4.99605 -6.67249 0.00686085 0.000681654 -5.37724e-05 -5.37357e-06 1.00295 0
13649 1 5.14883 -6.68431 0.00588764 0.00046719 -3.79748e-05 -6.04246e-08 1.00288 0
13646 1 5.33976 -6.49711 0.00951454 0.00113238 -2.95057e-05 -1.93628e-07 1.00305 0
13272 1 5.44838 -6.59977 0.00697745 0.000646646 -1.91661e-05 2.34789e-06 1.00272 0
13276 1 5.28291 -6.76299 0.00383445 0.000155736 -2.07147e-05 3.17286e-06 1.0031 0
13280 1 5.62147 -6.55207 0.00745179 0.000661021 -1.18716e-05 2.85741e-06 1.00264 0
12923 1 5.50714 -6.75792 0.00351955 0.00015457 -1.11129e-05 2.75376e-06 1.00282 0
12927 1 5.70907 -6.72523 0.00377792 0.000165833 -6.41447e-06 2.26688e-06 1.00257 0
12934 1 5.89122 -6.64361 0.00501646 0.000291342 -4.28198e-06 2.18705e-06 1.00227 0
12585 1 5.99481 -6.75489 0.00290066 8.12793e-05 -2.12386e-06 1.29254e-06 1.00237 0
12943 1 6.26629 -6.57834 0.00543132 0.00029833 2.00027e-07 8.11914e-07 1.00215 0
12592 1 6.18106 -6.7434 0.00283779 3.79413e-05 -6.12857e-07 6.92257e-07 1.00232 0
12248 1 6.38769 -6.72457 0.00289298 2.62286e-05 7.57036e-07 6.27612e-08 1.00206 0
12936 1 6.47228 -6.55245 0.00548723 0.000272966 1.63177e-06 -2.90609e-08 1.00202 0
12254 1 6.71325 -6.62437 0.00403583 0.000168554 2.41968e-06 -7.64399e-07 1.00181 0
11919 1 6.57633 -6.76982 0.00218886 -3.74988e-05 1.26945e-06 -4.54807e-07 1.00203 0
11924 1 6.91244 -6.60173 0.00412364 0.000151941 2.59774e-06 -1.15721e-06 1.00181 0
11538 1 6.85186 -6.77235 0.00197871 -7.05141e-06 1.74118e-06 -7.93927e-07 1.00191 0
12589 1 7.12491 -6.54443 0.00468146 0.000168835 2.45168e-06 -1.42049e-06 1.00174 0
11195 1 7.0721 -6.73268 0.00227629 1.23173e-05 1.88717e-06 -9.54611e-07 1.0018 0
11207 1 7.26614 -6.63126 0.00341947 9.32229e-05 1.85892e-06 -1.16465e-06 1.00163 0
10864 1 7.35262 -6.76751 0.00178625 1.5859e-05 1.30699e-06 -7.85391e-07 1.0017 0
11534 1 7.6788 -6.5483 0.00412761 0.000158985 5.99302e-07 -9.92255e-07 1.00163 0
10527 1 7.53513 -6.70588 0.00237332 3.65208e-05 9.26698e-07 -7.56e-07 1.00168 0
10538 1 7.7197 -6.71478 0.00218589 1.58438e-05 5.02625e-07 -5.57481e-07 1.00165 0
10178 1 7.88872 -6.71555 0.00209734 -9.20784e-08 -2.89862e-08 -4.23016e-07 1.00165 0
10185 1 8.06908 -6.70708 0.00210668 -2.98739e-06 -4.00899e-07 -2.90005e-07 1.00154 0
3109 1 8.38027 -6.6335 0.00280038 7.04241e-05 -9.57891e-07 -1.67995e-07 1.00149 0
3116 1 8.24623 -6.77944 0.00144615 -3.95389e-05 -5.12497e-07 -6.67325e-08 1.00161 0
3119 1 8.50974 -6.76814 0.00147201 -2.42378e-05 -6.97919e-07 2.54146e-08 1.00155 0
3113 1 8.67137 -6.63659 0.00267322 5.76769e-05 -1.08927e-06 -5.08436e-08 1.00143 0
3117 1 8.90051 -6.60066 0.00297229 5.83557e-05 -1.16777e-06 -1.87472e-08 1.00145 0
3123 1 8.80162 -6.77297 0.00138908 -1.65677e-05 -6.77164e-07 3.86801e-08 1.00151 0
3121 1 9.15073 -6.56763 0.00323017 6.43368e-05 -1.14699e-06 -1.82884e-08 1.00143 0
3124 1 9.03343 -6.73015 0.00169595 -9.03108e-06 -7.43114e-07 2.49654e-08 1.0015 0
3125 1 9.23213 -6.73362 0.00162522 -1.49258e-05 -6.56127e-07 2.30651e-08 1.00148 0
10521 1 9.35962 -6.55305 0.00330961 5.3367e-05 -1.09755e-06 -4.22027e-09 1.00141 0
3126 1 9.42555 -6.72279 0.0016939 -1.84301e-05 -6.37493e-07 2.02034e-08 1.00146 0
10174 1 9.56129 -6.53858 0.00339707 4.665e-05 -1.04783e-06 2.19376e-08 1.00139 0
3105 1 9.74773 -6.54181 0.0033329 3.5876e-05 -9.94663e-07 5.48591e-08 1.00137 0
3127 1 9.60989 -6.73004 0.00161295 -2.03883e-05 -6.00993e-07 2.0432e-08 1.00144 0
3128 1 9.79974 -6.7378 0.00152459 -1.76289e-05 -5.60264e-07 3.44548e-08 1.00142 0
3103 1 9.92863 -6.52845 0.00341766 2.65125e-05 -9.95799e-07 1.01372e-07 1.00134 0
3129 1 9.99651 -6.68692 0.00195761 -1.23949e-05 -6.7638e-07 7.86484e-08 1.00133 0
3131 1 10.1448 -6.76634 0.00130212 -2.42807e-05 -5.16425e-07 9.86627e-08 1.00139 0
3130 1 10.3226 -6.68006 0.00200593 -3.65701e-06 -6.52729e-07 1.79518e-07 1.00136 0
3132 1 10.4853 -6.70235 0.00176695 -2.90277e-05 -6.56097e-07 2.21992e-07 1.0013 0
3134 1 10.6411 -6.77049 0.00125389 -4.11305e-05 -5.06493e-07 2.1527e-07 1.00133 0
3167 1 10.659 -6.52681 0.0033172 2.04617e-05 -7.78273e-07 3.59964e-07 1.00128 0
3133 1 10.7921 -6.6262 0.00243355 5.90903e-06 -6.3964e-07 3.30304e-07 1.00127 0
3135 1 10.9147 -6.71336 0.00166998 -1.64579e-05 -4.72086e-07 2.93149e-07 1.00129 0
14330 1 0.997766 -6.39966 0.02 0 0 0 1 1
14331 1 0.984008 -6.21768 0.02 0 0 0 1 1
14332 1 1.19952 -6.38993 0.02 0 0 0 1 1
14334 1 1.21286 -6.21074 0.02 0 0 0 1 1
14333 1 1.40794 -6.39446 0.02 0 0 0 1 1
14335 1 1.42833 -6.20884 0.02 0 0 0 1 1
14337 1 1.61879 -6.41096 0.02 0 0 0 1 1
14336 1 1.63553 -6.22944 0.02 0 0 0 1 1
14338 1 1.84101 -6.39878 0.02 0 0 0 1 1
14339 1 1.84343 -6.21988 0.02 0 0 0 1 1
14340 1 2.05845 -6.38951 0.02 0 0 0 1 1
14341 1 2.05457 -6.20844 0.02 0 0 0 1 1
14342 1 2.2707 -6.38875 0.02 0 0 0 1 1
14343 1 2.2591 -6.20064 0.02 0 0 0 1 1
14345 1 2.45634 -6.1728 0.02 0 0 0 1 1
14344 1 2.47645 -6.36308 0.02 0 0 0 1 1
14008 1 2.85329 -6.17382 0.02 0 0 0 1 1
14007 1 2.87394 -6.36404 0.02 0 0 0 1 1
14346 1 2.67713 -6.37007 0.02 0 0 0 1 1
14347 1 2.6541 -6.17393 0.02 0 0 0 1 1
14009 1 3.06416 -6.37826 0.02 0 0 0 1 1
14011 1 3.0522 -6.17653 0.02 0 0 0 1 1
14010 1 3.25354 -6.34872 0.02 0 0 0 1 1
14012 1 3.24821 -6.15946 0.02 0 0 0 1 1
14013 1 3.44637 -6.37218 0.02 0 0 0 1 1
14015 1 3.44429 -6.17262 0.02 0 0 0 1 1
14014 1 3.63537 -6.35077 0.02 0 0 0 1.00002 1
14016 1 3.63848 -6.15477 0.02 0 0 0 1.00001 1
14017 1 3.82426 -6.36413 0.02 0 0 0 1.00008 1
14018 1 4.00498 -6.36396 0.0169283 0.00265409 2.12149e-05 2.14688e-05 1.0057 0
14019 1 3.83143 -6.16099 0.02 0 0 0 1.00006 1
14020 1 4.01216 -6.16122 0.017659 0.00235878 1.89032e-05 2.68031e-05 1.00574 0
14004 1 4.48842 -6.40737 0.0155237 0.00353425 -3.64509e-05 -4.85396e-05 1.00464 0
14021 1 4.16882 -6.30768 0.0166149 0.00387696 6.85352e-05 1.39134e-06 1.00707 0
14022 1 4.34406 -6.23891 0.0174394 0.00443791 3.13975e-05 -4.21856e-05 1.00542 0
14024 1 4.18314 -6.11062 0.0177192 0.00386561 5.10694e-05 8.54682e-06 1.00599 0
14025 1 4.36434 -6.04695 0.0184447 0.00468775 2.69134e-05 -3.1526e-05 1.00476 0
14023 1 4.52201 -6.20412 0.0174996 0.00449411 -1.73084e-05 -5.52826e-05 1.00432 0
14026 1 4.54683 -6.00236 0.0185616 0.00500262 1.52344e-06 -4.22199e-05 1.0041 0
14006 1 4.65519 -6.36095 0.0153949 0.00343206 -6.18032e-05 -4.95695e-05 1.00397 0
13632 1 4.82356 -6.2842 0.0155278 0.00346365 -5.99351e-05 -3.94585e-05 1.0039 0
14027 1 4.6935 -6.14067 0.0174589 0.00449842 -3.40592e-05 -4.87162e-05 1.00398 0
13651 1 4.87888 -6.1078 0.017037 0.00424301 -3.70434e-05 -3.40581e-05 1.00384 0
13637 1 5.0456 -6.49605 0.010848 0.00159888 -5.77618e-05 -1.18743e-05 1.00329 0
13641 1 5.19731 -6.45134 0.0109937 0.00157104 -4.24281e-05 -5.92114e-06 1.00328 0
13635 1 4.90874 -6.42694 0.0129325 0.00234246 -6.93405e-05 -2.64317e-05 1.00361 0
13636 1 5.04458 -6.25795 0.0147483 0.00299311 -4.69848e-05 -2.03822e-05 1.00371 0
13654 1 5.04037 -6.05296 0.0168775 0.00408153 -2.88155e-05 -1.99117e-05 1.00365 0
13655 1 5.20391 -6.03964 0.0163486 0.00369758 -2.23998e-05 -9.61155e-06 1.00343 0
13639 1 5.22272 -6.25571 0.013916 0.00254924 -3.33983e-05 -8.19429e-06 1.00342 0