ITEM: TIMESTEP
20000
ITEM: NUMBER OF ATOMS
10630
ITEM: BOX BOUNDS ff ff pp
0.0000000000000000e+00 2.2000000000000000e+01
-1.0000000000000000e+01 1.0000000000000000e+01
-2.0000000000000000e-02 2.0000000000000000e-02
ITEM: ATOMS id type x y vx vy fx fy c_den c_phase
1501 2 2 -10 0 0 0 0 1 5
1535 2 2 -9.8 0 0 0 0 1 5
1569 2 2 -9.6 0 0 0 0 1 5
1502 2 2.2 -10 0 0 0 0 1 5
1503 2 2.4 -10 0 0 0 0 1 5
1536 2 2.2 -9.8 0 0 0 0 1 5
1537 2 2.4 -9.8 0 0 0 0 1 5
1570 2 2.2 -9.6 0 0 0 0 1 5
1571 2 2.4 -9.6 0 0 0 0 1 5
1504 2 2.6 -10 0 0 0 0 1 5
1505 2 2.8 -10 0 0 0 0 1 5
1538 2 2.6 -9.8 0 0 0 0 1 5
1539 2 2.8 -9.8 0 0 0 0 1 5
1572 2 2.6 -9.6 0 0 0 0 1 5
1573 2 2.8 -9.6 0 0 0 0 1 5
1506 2 3 -10 0 0 0 0 1 5
1540 2 3 -9.8 0 0 0 0 1 5
1574 2 3 -9.6 0 0 0 0 1 5
1507 2 3.2 -10 0 0 0 0 1 5
1541 2 3.2 -9.8 0 0 0 0 1 5
1575 2 3.2 -9.6 0 0 0 0 1 5
1508 2 3.4 -10 0 0 0 0 1 5
1542 2 3.4 -9.8 0 0 0 0 1 5
1576 2 3.4 -9.6 0 0 0 0 1 5
1509 2 3.6 -10 0 0 0 0 1 5
1543 2 3.6 -9.8 0 0 0 0 1 5
1577 2 3.6 -9.6 0 0 0 0 1 5
1510 2 3.8 -10 0 0 0 0 1 5
1544 2 3.8 -9.8 0 0 0 0 1 5
1578 2 3.8 -9.6 0 0 0 0 1 5
1511 2 4 -10 0 0 0 0 1 5
1512 2 4.2 -10 0 0 0 0 1 5
1545 2 4 -9.8 0 0 0 0 1 5
1546 2 4.2 -9.8 0 0 0 0 1 5
1579 2 4 -9.6 0 0 0 0 1 5
1580 2 4.2 -9.6 0 0 0 0 1 5
1513 2 4.4 -10 0 0 0 0 1 5
1514 2 4.6 -10 0 0 0 0 1 5
1547 2 4.4 -9.8 0 0 0 0 1 5
1548 2 4.6 -9.8 0 0 0 0 1 5
1581 2 4.4 -9.6 0 0 0 0 1 5
1582 2 4.6 -9.6 0 0 0 0 1 5
1515 2 4.8 -10 0 0 0 0 1 5
1516 2 5 -10 0 0 0 0 1 5
1549 2 4.8 -9.8 0 0 0 0 1 5
1550 2 5 -9.8 0 0 0 0 1 5
1583 2 4.8 -9.6 0 0 0 0 1 5
1584 2 5 -9.6 0 0 0 0 1 5
1517 2 5.2 -10 0 0 0 0 1 5
1518 2 5.4 -10 0 0 0 0 1 5
1551 2 5.2 -9.8 0 0 0 0 1 5
1552 2 5.4 -9.8 0 0 0 0 1 5
1585 2 5.2 -9.6 0 0 0 0 1 5
1586 2 5.4 -9.6 0 0 0 0 1 5
1519 2 5.6 -10 0 0 0 0 1 5
1553 2 5.6 -9.8 0 0 0 0 1 5
1587 2 5.6 -9.6 0 0 0 0 1 5
1520 2 5.8 -10 0 0 0 0 1 5
1554 2 5.8 -9.8 0 0 0 0 1 5
1588 2 5.8 -9.6 0 0 0 0 1 5
1521 2 6 -10 0 0 0 0 1 5
1555 2 6 -9.8 0 0 0 0 1 5
1589 2 6 -9.6 0 0 0 0 1 5
1522 2 6.2 -10 0 0 0 0 1 5
1523 2 6.4 -10 0 0 0 0 1 5
1556 2 6.2 -9.8 0 0 0 0 1 5
1557 2 6.4 -9.8 0 0 0 0 1 5
1590 2 6.2 -9.6 0 0 0 0 1 5
1591 2 6.4 -9.6 0 0 0 0 1 5
1524 2 6.6 -10 0 0 0 0 1 5
1525 2 6.8 -10 0 0 0 0 1 5
1558 2 6.6 -9.8 0 0 0 0 1 5
1559 2 6.8 -9.8 0 0 0 0 1 5
1592 2 6.6 -9.6 0 0 0 0 1 5
1593 2 6.8 -9.6 0 0 0 0 1 5
1526 2 7 -10 0 0 0 0 1 5
1527 2 7.2 -10 0 0 0 0 1 5
1560 2 7 -9.8 0 0 0 0 1 5
1561 2 7.2 -9.8 0 0 0 0 1 5
1594 2 7 -9.6 0 0 0 0 1 5
1595 2 7.2 -9.6 0 0 0 0 1 5
1603 2 2 -9.4 0 0 0 0 1 5
1637 2 2 -9.2 0 0 0 0 1 5
1604 2 2.2 -9.4 0 0 0 0 1 5
1605 2 2.4 -9.4 0 0 0 0 1 5
1638 2 2.2 -9.2 0 0 0 0 1 5
1639 2 2.4 -9.2 0 0 0 0 1 5
1606 2 2.6 -9.4 0 0 0 0 1 5
1607 2 2.8 -9.4 0 0 0 0 1 5
1640 2 2.6 -9.2 0 0 0 0 1 5
1641 2 2.8 -9.2 0 0 0 0 1 5
1608 2 3 -9.4 0 0 0 0 1 5
1642 2 3 -9.2 0 0 0 0 1 5
1609 2 3.2 -9.4 0 0 0 0 1 5
1643 2 3.2 -9.2 0 0 0 0 1 5
1610 2 3.4 -9.4 0 0 0 0 1 5
1644 2 3.4 -9.2 0 0 0 0 1 5
1611 2 3.6 -9.4 0 0 0 0 1 5
1645 2 3.6 -9.2 0 0 0 0 1 5
1612 2 3.8 -9.4 0 0 0 0 1 5
1646 2 3.8 -9.2 0 0 0 0 1 5
1613 2 4 -9.4 0 0 0 0 1 5
1614 2 4.2 -9.4 0 0 0 0 1 5
1647 2 4 -9.2 0 0 0 0 1 5
1648 2 4.2 -9.2 0 0 0 0 1 5
1615 2 4.4 -9.4 0 0 0 0 1 5
1616 2 4.6 -9.4 0 0 0 0 1 5
1649 2 4.4 -9.2 0 0 0 0 1 5
1650 2 4.6 -9.2 0 0 0 0 1 5
1617 2 4.8 -9.4 0 0 0 0 1 5
1618 2 5 -9.4 0 0 0 0 1 5
1651 2 4.8 -9.2 0 0 0 0 1 5
1652 2 5 -9.2 0 0 0 0 1 5
1619 2 5.2 -9.4 0 0 0 0 1 5
1620 2 5.4 -9.4 0 0 0 0 1 5
1653 2 5.2 -9.2 0 0 0 0 1 5
1654 2 5.4 -9.2 0 0 0 0 1 5
1621 2 5.6 -9.4 0 0 0 0 1 5
1655 2 5.6 -9.2 0 0 0 0 1 5
1622 2 5.8 -9.4 0 0 0 0 1 5
1656 2 5.8 -9.2 0 0 0 0 1 5
1623 2 6 -9.4 0 0 0 0 1 5
1657 2 6 -9.2 0 0 0 0 1 5
1624 2 6.2 -9.4 0 0 0 0 1 5
1625 2 6.4 -9.4 0 0 0 0 1 5
1658 2 6.2 -9.2 0 0 0 0 1 5
1659 2 6.4 -9.2 0 0 0 0 1 5
1626 2 6.6 -9.4 0 0 0 0 1 5
1627 2 6.8 -9.4 0 0 0 0 1 5
1660 2 6.6 -9.2 0 0 0 0 1 5
1661 2 6.8 -9.2 0 0 0 0 1 5
1628 2 7 -9.4 0 0 0 0 1 5
1629 2 7.2 -9.4 0 0 0 0 1 5
1662 2 7 -9.2 0 0 0 0 1 5
1663 2 7.2 -9.2 0 0 0 0 1 5
1671 2 2 -9 0 0 0 0 1 5
1705 2 2 -8.8 0 0 0 0 1 5
1672 2 2.2 -9 0 0 0 0 1 5
1673 2 2.4 -9 0 0 0 0 1 5
1706 2 2.2 -8.8 0 0 0 0 1 5
1707 2 2.4 -8.8 0 0 0 0 1 5
1674 2 2.6 -9 0 0 0 0 1 5
1675 2 2.8 -9 0 0 0 0 1 5
1708 2 2.6 -8.8 0 0 0 0 1 5
1709 2 2.8 -8.8 0 0 0 0 1 5
1676 2 3 -9 0 0 0 0 1 5
1710 2 3 -8.8 0 0 0 0 1 5
1677 2 3.2 -9 0 0 0 0 1 5
1711 2 3.2 -8.8 0 0 0 0 1 5
1678 2 3.4 -9 0 0 0 0 1 5
1712 2 3.4 -8.8 0 0 0 0 1 5
1679 2 3.6 -9 0 0 0 0 1 5
1713 2 3.6 -8.8 0 0 0 0 1 5
1680 2 3.8 -9 0 0 0 0 1 5
1714 2 3.8 -8.8 0 0 0 0 1 5
1681 2 4 -9 0 0 0 0 1 5
1682 2 4.2 -9 0 0 0 0 1 5
1715 2 4 -8.8 0 0 0 0 1 5
1716 2 4.2 -8.8 0 0 0 0 1 5
1683 2 4.4 -9 0 0 0 0 1 5
1684 2 4.6 -9 0 0 0 0 1 5
1717 2 4.4 -8.8 0 0 0 0 1 5
1718 2 4.6 -8.8 0 0 0 0 1 5
1685 2 4.8 -9 0 0 0 0 1 5
1686 2 5 -9 0 0 0 0 1 5
1719 2 4.8 -8.8 0 0 0 0 1 5
1720 2 5 -8.8 0 0 0 0 1 5
1687 2 5.2 -9 0 0 0 0 1 5
1688 2 5.4 -9 0 0 0 0 1 5
1721 2 5.2 -8.8 0 0 0 0 1 5
1722 2 5.4 -8.8 0 0 0 0 1 5
1689 2 5.6 -9 0 0 0 0 1 5
1723 2 5.6 -8.8 0 0 0 0 1 5
1690 2 5.8 -9 0 0 0 0 1 5
1724 2 5.8 -8.8 0 0 0 0 1 5
1691 2 6 -9 0 0 0 0 1 5
1725 2 6 -8.8 0 0 0 0 1 5
1692 2 6.2 -9 0 0 0 0 1 5
1693 2 6.4 -9 0 0 0 0 1 5
1726 2 6.2 -8.8 0 0 0 0 1 5
1727 2 6.4 -8.8 0 0 0 0 1 5
1694 2 6.6 -9 0 0 0 0 1 5
1695 2 6.8 -9 0 0 0 0 1 5
1728 2 6.6 -8.8 0 0 0 0 1 5
1729 2 6.8 -8.8 0 0 0 0 1 5
1696 2 7 -9 0 0 0 0 1 5
1697 2 7.2 -9 0 0 0 0 1 5
1730 2 7 -8.8 0 0 0 0 1 5
1731 2 7.2 -8.8 0 0 0 0 1 5
1739 2 2 -8.6 0 0 0 0 1 5
1773 2 2 -8.4 0 0 0 0 1 5
1740 2 2.2 -8.6 0 0 0 0 1 5
1741 2 2.4 -8.6 0 0 0 0 1 5
1774 2 2.2 -8.4 0 0 0 0 1 5
1775 2 2.4 -8.4 0 0 0 0 1 5
1742 2 2.6 -8.6 0 0 0 0 1 5
1743 2 2.8 -8.6 0 0 0 0 1 5
1776 2 2.6 -8.4 0 0 0 0 1 5
1777 2 2.8 -8.4 0 0 0 0 1 5
1744 2 3 -8.6 0 0 0 0 1 5
1778 2 3 -8.4 0 0 0 0 1 5
1745 2 3.2 -8.6 0 0 0 0 1 5
1779 2 3.2 -8.4 0 0 0 0 1 5
1746 2 3.4 -8.6 0 0 0 0 1 5
1780 2 3.4 -8.4 0 0 0 0 1 5
1747 2 3.6 -8.6 0 0 0 0 1 5
1781 2 3.6 -8.4 0 0 0 0 1 5
1748 2 3.8 -8.6 0 0 0 0 1 5
1782 2 3.8 -8.4 0 0 0 0 1 5
1749 2 4 -8.6 0 0 0 0 1 5
1750 2 4.2 -8.6 0 0 0 0 1 5
1783 2 4 -8.4 0 0 0 0 1 5
1784 2 4.2 -8.4 0 0 0 0 1 5
1751 2 4.4 -8.6 0 0 0 0 1 5
1752 2 4.6 -8.6 0 0 0 0 1 5
1785 2 4.4 -8.4 0 0 0 0 1 5
1786 2 4.6 -8.4 0 0 0 0 1 5
1753 2 4.8 -8.6 0 0 0 0 1 5
1754 2 5 -8.6 0 0 0 0 1 5
1787 2 4.8 -8.4 0 0 0 0 1 5
1788 2 5 -8.4 0 0 0 0 1 5
1755 2 5.2 -8.6 0 0 0 0 1 5
1756 2 5.4 -8.6 0 0 0 0 1 5
1789 2 5.2 -8.4 0 0 0 0 1 5
1790 2 5.4 -8.4 0 0 0 0 1 5
1757 2 5.6 -8.6 0 0 0 0 1 5
1791 2 5.6 -8.4 0 0 0 0 1 5
1758 2 5.8 -8.6 0 0 0 0 1 5
1792 2 5.8 -8.4 0 0 0 0 1 5
1759 2 6 -8.6 0 0 0 0 1 5
1793 2 6 -8.4 0 0 0 0 1 5
1760 2 6.2 -8.6 0 0 0 0 1 5
1761 2 6.4 -8.6 0 0 0 0 1 5
1794 2 6.2 -8.4 0 0 0 0 1 5
1795 2 6.4 -8.4 0 0 0 0 1 5
1762 2 6.6 -8.6 0 0 0 0 1 5
1763 2 6.8 -8.6 0 0 0 0 1 5
1796 2 6.6 -8.4 0 0 0 0 1 5
1797 2 6.8 -8.4 0 0 0 0 1 5
1764 2 7 -8.6 0 0 0 0 1 5
1765 2 7.2 -8.6 0 0 0 0 1 5
1798 2 7 -8.4 0 0 0 0 1 5
1799 2 7.2 -8.4 0 0 0 0 1 5
1807 2 2 -8.2 0 0 0 0 1 5
1841 2 2 -8 0 0 0 0 1 5
1808 2 2.2 -8.2 0 0 0 0 1 5
1809 2 2.4 -8.2 0 0 0 0 1 5
1842 2 2.2 -8 0 0 0 0 1 5
1843 2 2.4 -8 0 0 0 0 1 5
1810 2 2.6 -8.2 0 0 0 0 1 5
1811 2 2.8 -8.2 0 0 0 0 1 5
1844 2 2.6 -8 0 0 0 0 1 5
1845 2 2.8 -8 0 0 0 0 1 5
1812 2 3 -8.2 0 0 0 0 1 5
1846 2 3 -8 0 0 0 0 1 5
1813 2 3.2 -8.2 0 0 0 0 1 5
1847 2 3.2 -8 0 0 0 0 1 5
1814 2 3.4 -8.2 0 0 0 0 1 5
1848 2 3.4 -8 0 0 0 0 1 5
1815 2 3.6 -8.2 0 0 0 0 1 5
1849 2 3.6 -8 0 0 0 0 1 5
1816 2 3.8 -8.2 0 0 0 0 1 5
1850 2 3.8 -8 0 0 0 0 1 5
1817 2 4 -8.2 0 0 0 0 1 5
1818 2 4.2 -8.2 0 0 0 0 1 5
1851 2 4 -8 0 0 0 0 1 5
1852 2 4.2 -8 0 0 0 0 1 5
1819 2 4.4 -8.2 0 0 0 0 1 5
1820 2 4.6 -8.2 0 0 0 0 1 5
1853 2 4.4 -8 0 0 0 0 1 5
1854 2 4.6 -8 0 0 0 0 1 5
1821 2 4.8 -8.2 0 0 0 0 1 5
1822 2 5 -8.2 0 0 0 0 1 5
1855 2 4.8 -8 0 0 0 0 1 5
1856 2 5 -8 0 0 0 0 1 5
1823 2 5.2 -8.2 0 0 0 0 1 5
1824 2 5.4 -8.2 0 0 0 0 1 5
1857 2 5.2 -8 0 0 0 0 1 5
1858 2 5.4 -8 0 0 0 0 1 5
1825 2 5.6 -8.2 0 0 0 0 1 5
1859 2 5.6 -8 0 0 0 0 1 5
1826 2 5.8 -8.2 0 0 0 0 1 5
1860 2 5.8 -8 0 0 0 0 1 5
1827 2 6 -8.2 0 0 0 0 1 5
1861 2 6 -8 0 0 0 0 1 5
1828 2 6.2 -8.2 0 0 0 0 1 5
1829 2 6.4 -8.2 0 0 0 0 1 5
1862 2 6.2 -8 0 0 0 0 1 5
1863 2 6.4 -8 0 0 0 0 1 5
1830 2 6.6 -8.2 0 0 0 0 1 5
1831 2 6.8 -8.2 0 0 0 0 1 5
1864 2 6.6 -8 0 0 0 0 1 5
1865 2 6.8 -8 0 0 0 0 1 5
1832 2 7 -8.2 0 0 0 0 1 5
1833 2 7.2 -8.2 0 0 0 0 1 5
1866 2 7 -8 0 0 0 0 1 5
1867 2 7.2 -8 0 0 0 0 1 5
1875 2 2 -7.8 0 0 0 0 1 5
1909 2 2 -7.6 0 0 0 0 1 5
1943 2 2 -7.4 0 0 0 0 1.00146 5
1876 2 2.2 -7.8 0 0 0 0 1 5
1877 2 2.4 -7.8 0 0 0 0 1 5
1910 2 2.2 -7.6 0 0 0 0 1 5
1911 2 2.4 -7.6 0 0 0 0 1 5
1944 2 2.2 -7.4 0 0 0 0 1.00112 5
1945 2 2.4 -7.4 0 0 0 0 1.00105 5
1878 2 2.6 -7.8 0 0 0 0 1 5
1879 2 2.8 -7.8 0 0 0 0 1 5
1912 2 2.6 -7.6 0 0 0 0 1 5
1913 2 2.8 -7.6 0 0 0 0 1 5
1946 2 2.6 -7.4 0 0 0 0 0.997606 5
1947 2 2.8 -7.4 0 0 0 0 1.00051 5
1880 2 3 -7.8 0 0 0 0 1 5
1914 2 3 -7.6 0 0 0 0 1 5
1948 2 3 -7.4 0 0 0 0 1.00785 5
1881 2 3.2 -7.8 0 0 0 0 1 5
1915 2 3.2 -7.6 0 0 0 0 1 5
1949 2 3.2 -7.4 0 0 0 0 0.999671 5
1882 2 3.4 -7.8 0 0 0 0 1 5
1916 2 3.4 -7.6 0 0 0 0 1 5
1950 2 3.4 -7.4 0 0 0 0 1.00159 5
1883 2 3.6 -7.8 0 0 0 0 1 5
1917 2 3.6 -7.6 0 0 0 0 1 5
1951 2 3.6 -7.4 0 0 0 0 1.00056 5
1884 2 3.8 -7.8 0 0 0 0 1 5
1918 2 3.8 -7.6 0 0 0 0 1 5
1952 2 3.8 -7.4 0 0 0 0 0.99109 5
1885 2 4 -7.8 0 0 0 0 1 5
1886 2 4.2 -7.8 0 0 0 0 1 5
1919 2 4 -7.6 0 0 0 0 1 5
1920 2 4.2 -7.6 0 0 0 0 1 5
1953 2 4 -7.4 0 0 0 0 1.02058 5
1954 2 4.2 -7.4 0 0 0 0 1.02462 5
1887 2 4.4 -7.8 0 0 0 0 1 5
1888 2 4.6 -7.8 0 0 0 0 1 5
1921 2 4.4 -7.6 0 0 0 0 1 5
1922 2 4.6 -7.6 0 0 0 0 1 5
1955 2 4.4 -7.4 0 0 0 0 1.02404 5
1956 2 4.6 -7.4 0 0 0 0 1.01899 5
1889 2 4.8 -7.8 0 0 0 0 1 5
1890 2 5 -7.8 0 0 0 0 1 5
1923 2 4.8 -7.6 0 0 0 0 1 5
1924 2 5 -7.6 0 0 0 0 1 5
1957 2 4.8 -7.4 0 0 0 0 1.01792 5
1958 2 5 -7.4 0 0 0 0 1.01771 5
1891 2 5.2 -7.8 0 0 0 0 1 5
1892 2 5.4 -7.8 0 0 0 0 1 5
1925 2 5.2 -7.6 0 0 0 0 1 5
1926 2 5.4 -7.6 0 0 0 0 1 5
1959 2 5.2 -7.4 0 0 0 0 1.01742 5
1960 2 5.4 -7.4 0 0 0 0 1.01728 5
1893 2 5.6 -7.8 0 0 0 0 1 5
1927 2 5.6 -7.6 0 0 0 0 1 5
1961 2 5.6 -7.4 0 0 0 0 1.01738 5
1894 2 5.8 -7.8 0 0 0 0 1 5
1928 2 5.8 -7.6 0 0 0 0 1 5
1962 2 5.8 -7.4 0 0 0 0 1.01763 5
1895 2 6 -7.8 0 0 0 0 1 5
1929 2 6 -7.6 0 0 0 0 1 5
1963 2 6 -7.4 0 0 0 0 1.01763 5
1896 2 6.2 -7.8 0 0 0 0 1 5
1897 2 6.4 -7.8 0 0 0 0 1 5
1930 2 6.2 -7.6 0 0 0 0 1 5
1931 2 6.4 -7.6 0 0 0 0 1 5
1964 2 6.2 -7.4 0 0 0 0 1.01761 5
1965 2 6.4 -7.4 0 0 0 0 1.01756 5
1898 2 6.6 -7.8 0 0 0 0 1 5
1899 2 6.8 -7.8 0 0 0 0 1 5
1932 2 6.6 -7.6 0 0 0 0 1 5
1933 2 6.8 -7.6 0 0 0 0 1 5
1966 2 6.6 -7.4 0 0 0 0 1.01757 5
1967 2 6.8 -7.4 0 0 0 0 1.01757 5
1900 2 7 -7.8 0 0 0 0 1 5
1901 2 7.2 -7.8 0 0 0 0 1 5
1934 2 7 -7.6 0 0 0 0 1 5
1935 2 7.2 -7.6 0 0 0 0 1 5
1968 2 7 -7.4 0 0 0 0 1.01758 5
1969 2 7.2 -7.4 0 0 0 0 1.01762 5
1977 2 2 -7.2 0 0 0 0 1.00374 5
2011 2 2 -7 0 0 0 0 1.00458 5
1978 2 2.2 -7.2 0 0 0 0 1.00087 5
1979 2 2.4 -7.2 0 0 0 0 1.0003 5
2012 2 2.2 -7 0 0 0 0 1.00086 5
2013 2 2.4 -7 0 0 0 0 1.0001 5
1980 2 2.6 -7.2 0 0 0 0 0.999115 5
1981 2 2.8 -7.2 0 0 0 0 0.999538 5
2014 2 2.6 -7 0 0 0 0 0.999569 5
2015 2 2.8 -7 0 0 0 0 0.999745 5
1982 2 3 -7.2 0 0 0 0 1.00129 5
2016 2 3 -7 0 0 0 0 1.00062 5
1983 2 3.2 -7.2 0 0 0 0 1.00136 5
2017 2 3.2 -7 0 0 0 0 1.00085 5
1984 2 3.4 -7.2 0 0 0 0 1.001 5
2018 2 3.4 -7 0 0 0 0 1.00054 5
1985 2 3.6 -7.2 0 0 0 0 0.999566 5
2019 2 3.6 -7 0 0 0 0 1.00027 5
1986 2 3.8 -7.2 0 0 0 0 1.00325 5
2020 2 3.8 -7 0 0 0 0 1.00405 5
1987 2 4 -7.2 0 0 0 0 1.01301 5
1988 2 4.2 -7.2 0 0 0 0 1.02026 5
2021 2 4 -7 0 0 0 0 1.01093 5
2022 2 4.2 -7 0 0 0 0 1.01897 5
1989 2 4.4 -7.2 0 0 0 0 1.02395 5
1990 2 4.6 -7.2 0 0 0 0 1.0197 5
2023 2 4.4 -7 0 0 0 0 1.02378 5
2024 2 4.6 -7 0 0 0 0 1.02035 5
1991 2 4.8 -7.2 0 0 0 0 1.01822 5
1992 2 5 -7.2 0 0 0 0 1.01806 5
2025 2 4.8 -7 0 0 0 0 1.01862 5
2026 2 5 -7 0 0 0 0 1.01838 5
1993 2 5.2 -7.2 0 0 0 0 1.01782 5
1994 2 5.4 -7.2 0 0 0 0 1.01771 5
2027 2 5.2 -7 0 0 0 0 1.01817 5
2028 2 5.4 -7 0 0 0 0 1.01804 5
1995 2 5.6 -7.2 0 0 0 0 1.01776 5
2029 2 5.6 -7 0 0 0 0 1.01803 5
1996 2 5.8 -7.2 0 0 0 0 1.01787 5
2030 2 5.8 -7 0 0 0 0 1.01806 5
1997 2 6 -7.2 0 0 0 0 1.01787 5
2031 2 6 -7 0 0 0 0 1.01804 5
1998 2 6.2 -7.2 0 0 0 0 1.01779 5
1999 2 6.4 -7.2 0 0 0 0 1.01777 5
2032 2 6.2 -7 0 0 0 0 1.01797 5
2033 2 6.4 -7 0 0 0 0 1.01796 5
2000 2 6.6 -7.2 0 0 0 0 1.0178 5
2001 2 6.8 -7.2 0 0 0 0 1.01781 5
2034 2 6.6 -7 0 0 0 0 1.01797 5
2035 2 6.8 -7 0 0 0 0 1.01801 5
2002 2 7 -7.2 0 0 0 0 1.01786 5
2003 2 7.2 -7.2 0 0 0 0 1.01787 5
2036 2 7 -7 0 0 0 0 1.01808 5
2037 2 7.2 -7 0 0 0 0 1.01806 5
11162 1 2.02507 -6.74131 0.02 0 -0.004533 -0.000530447 1 2
11161 1 2.06046 -6.55585 0.02 0 5.21097e-05 0.000271462 1 2
11163 1 2.22072 -6.73288 0.02 0 -0.00166169 -0.000343001 1 2
11164 1 2.41797 -6.75405 0.02 0 -0.00287994 -0.000480609 1 2
11165 1 2.25902 -6.55059 0.02 0 0.000458082 0.000683143 1 2
11166 1 2.4478 -6.56092 0.02 0 0.000190572 0.000525992 1 2
11167 1 2.61492 -6.73507 0.02 0 -0.00237347 -0.000455888 1 2
11168 1 2.80919 -6.74316 0.02 0 -0.00291677 -0.000451246 1 2
11169 1 2.63843 -6.5457 0.02 0 0.000175257 0.000455236 1 2
11170 1 2.83078 -6.54895 0.02 0 0.000168302 0.000459786 1 2
11171 1 2.99996 -6.72408 0.02 0 -0.00231116 -0.000445105 1 2
11172 1 3.19257 -6.75776 0.02 0 -0.00299921 -0.000536929 1 2
11173 1 3.02933 -6.54144 0.02 0 0.000184252 0.000495896 1 2
11174 1 3.23191 -6.57579 0.02 0 0.000126118 0.00057097 1 2
11322 1 3.40081 -6.75322 0.02 0 -0.00281991 -0.000526656 1 2
11323 1 3.6098 -6.77093 0.02 0 -0.00343222 -0.000307911 1 2
11324 1 3.43078 -6.57351 0.02 0 6.83602e-05 0.00051122 1 2
11325 1 3.62141 -6.57269 0.02 0 -0.000161355 0.000400304 1 2
11326 1 3.80999 -6.73167 0.02 0 -0.00464387 -0.000209448 1 2
11327 1 3.81096 -6.54647 0.02 0 -0.00171178 0.000228097 1 2
10845 1 3.99971 -6.75137 0.02 0 -0.00616793 5.58033e-05 1.00153 2
10847 1 4.00027 -6.5657 0.0187233 6.65398e-05 -0.00510673 0.000266159 1.00495 0
10846 1 4.08861 -6.78032 0.00752727 6.89191e-05 -0.00119144 -0.000157283 1.02511 0
10848 1 4.05568 -6.54985 0.0139405 0.00158485 0.000160067 -8.25975e-05 1.01976 0
10849 1 4.20585 -6.63306 0.010378 0.00195553 -0.000200464 -0.000236485 1.02652 0
10851 1 4.25423 -6.48656 0.0125438 0.00262746 0.00011993 -6.86405e-05 1.02621 0
10850 1 4.27441 -6.78201 0.0053689 -0.000348979 -0.000271763 -2.61155e-05 1.02926 0
10852 1 4.40709 -6.49436 0.0130185 0.00247342 4.32521e-05 -1.9015e-05 1.0231 0
10853 1 4.41704 -6.6502 0.00945994 0.0012406 -1.21149e-05 -2.23673e-05 1.02278 0
10854 1 4.60392 -6.57985 0.0105388 0.00161374 2.36906e-05 -6.96399e-06 1.01973 0
10857 1 4.52019 -6.76701 0.00592616 0.000308265 2.97943e-06 -3.50406e-06 1.02116 0
10858 1 4.76653 -6.56275 0.00976664 0.0014698 2.26901e-05 -8.53089e-06 1.01903 0
10862 1 4.69799 -6.74322 0.00560859 0.000397323 1.3312e-05 -5.00375e-06 1.01925 0
10502 1 4.91553 -6.6123 0.00759481 0.000933656 1.89668e-05 -8.57273e-06 1.01872 0
10507 1 4.87714 -6.78742 0.00369854 7.05724e-05 1.18834e-05 -5.41807e-06 1.01939 0
10503 1 5.11672 -6.53998 0.00799296 0.00106338 1.63357e-05 -9.07159e-06 1.01868 0
10504 1 5.28205 -6.52498 0.0075253 0.000933245 1.19872e-05 -8.54214e-06 1.0184 0
10511 1 5.0607 -6.691 0.00502269 0.000421298 1.37859e-05 -7.17065e-06 1.01855 0
10519 1 5.18761 -6.76748 0.00308355 3.20589e-05 9.08677e-06 -5.61493e-06 1.01877 0
10512 1 5.44969 -6.54932 0.00649105 0.00074275 7.22581e-06 -7.13894e-06 1.0181 0
10174 1 5.34507 -6.69288 0.00406736 0.000296305 8.03283e-06 -6.07102e-06 1.0181 0
10178 1 5.58733 -6.6382 0.00454313 0.000432345 3.18407e-06 -4.88443e-06 1.01789 0
10189 1 5.48206 -6.79603 0.00228857 -7.29383e-05 4.22399e-06 -3.6354e-06 1.01851 0
3101 1 5.74652 -6.63225 0.00430549 0.00039427 -7.91503e-07 -3.51414e-06 1.01783 0
3109 1 5.77705 -6.79157 0.00199363 -2.37703e-05 -4.26316e-07 -1.33872e-06 1.01843 0
3103 1 5.97728 -6.63162 0.00395397 0.00034753 -5.82006e-06 -1.14517e-06 1.0178 0
3113 1 6.01964 -6.77679 0.00195946 -7.24524e-06 -3.95842e-06 1.03337e-07 1.01829 0
3105 1 6.19054 -6.58884 0.00438629 0.000345773 -1.03861e-05 7.93094e-07 1.01779 0
3111 1 6.38079 -6.58017 0.00434684 0.000300739 -1.27265e-05 2.21415e-06 1.01779 0
3116 1 6.22115 -6.74964 0.00215437 6.24719e-06 -6.84066e-06 1.15384e-06 1.01814 0
3117 1 6.40951 -6.76222 0.00193716 -5.43374e-05 -7.8352e-06 2.01967e-06 1.01825 0
3106 1 6.55885 -6.57105 0.00434823 0.000246148 -1.38275e-05 3.29256e-06 1.01781 0
3118 1 6.60573 -6.72548 0.00230067 -8.10012e-06 -9.51784e-06 2.77471e-06 1.01813 0
3114 1 6.74486 -6.5641 0.00436472 0.000214442 -1.36422e-05 3.99027e-06 1.01782 0
3112 1 6.90425 -6.56183 0.00432388 0.000169076 -1.27307e-05 4.41043e-06 1.01783 0
3119 1 6.77685 -6.76349 0.00183933 -0.000103348 -8.51231e-06 3.1706e-06 1.01828 0
3120 1 7.02572 -6.64329 0.00319763 7.84685e-05 -1.00387e-05 4.00182e-06 1.0179 0
3121 1 7.03401 -6.80159 0.00152401 -0.000184109 -6.56109e-06 3.17715e-06 1.01842 0
3122 1 7.24775 -6.65518 0.00299625 4.5771e-05 -7.76779e-06 3.54926e-06 1.01788 0
3123 1 7.33482 -6.78343 0.00162692 -0.000152677 -4.95284e-06 2.5257e-06 1.01827 0
11176 1 2.01885 -6.37194 0.02 0 -8.38807e-07 -2.91789e-07 1 2
11175 1 2.07481 -6.18665 0.02 0 2.17612e-06 3.59969e-06 1 2
11177 1 2.22683 -6.3674 0.02 0 0.000132255 0.000149729 1 2
11179 1 2.27642 -6.18267 0.02 0 7.41322e-06 1.38313e-05 1 2
11178 1 2.43566 -6.36328 0.02 0 9.56912e-05 0.000126283 1 2
11180 1 2.4677 -6.16039 0.02 0 3.75529e-06 8.46141e-06 1 2
11181 1 2.63124 -6.35019 0.02 0 7.14534e-05 0.000100364 1 2
11182 1 2.82276 -6.34812 0.02 0 6.94173e-05 9.83403e-05 1 2
11183 1 2.65664 -6.14888 0.02 0 2.8779e-06 6.69099e-06 1 2
11184 1 2.84468 -6.14239 0.02 0 2.46194e-06 5.57242e-06 1 2
11185 1 3.01451 -6.34864 0.02 0 6.84864e-05 9.94835e-05 1 2
11186 1 3.21356 -6.39314 0.02 0 0.000118868 0.000158986 1 2
11187 1 3.03258 -6.14707 0.02 0 2.76995e-06 5.57472e-06 1 2
11188 1 3.21689 -6.20358 0.02 0 8.35159e-06 1.4667e-05 1 2
11328 1 3.422 -6.38957 0.02 0 0.000108218 0.000146039 1 2
11329 1 3.62203 -6.37484 0.02 0 -0.000146467 0.000113407 1 2
11330 1 3.4073 -6.19537 0.02 0 6.22967e-06 1.45394e-05 1 2
11331 1 3.59791 -6.17698 0.02 0 -0.000172101 7.24272e-06 1 2
11333 1 3.80097 -6.18181 0.02 0 -0.00159918 -1.45374e-05 1 2
10865 1 3.99983 -6.37648 0.02 0 -0.00420195 0.000315934 1.01089 2
10866 1 3.99998 -6.19461 0.02 0 -0.00378971 0.000412853 1.01226 2
11332 1 3.82432 -6.36095 0.02 0 -0.00180052 4.51979e-05 1 2
10867 1 4.13585 -6.36325 0.0139422 0.00175674 0.000362671 -3.2091e-05 1.02422 0
10855 1 4.53809 -6.41711 0.0138018 0.00277216 2.7596e-05 -8.12821e-06 1.02066 0
10868 1 4.1525 -6.17799 0.0147429 0.00198663 0.000201296 0.000113824 1.02358 0
10869 1 4.28874 -6.30852 0.0143083 0.00310906 0.000151849 9.16268e-07 1.02475 0
10871 1 4.31306 -6.12257 0.0154781 0.00357887 5.4394e-05 3.2424e-05 1.02306 0
10870 1 4.44289 -6.26656 0.0154055 0.00355379 4.46037e-05 -4.01067e-06 1.0216 0
10872 1 4.47091 -6.05922 0.0162147 0.00420819 2.68315e-05 5.2848e-07 1.02044 0
10873 1 4.59159 -6.19546 0.0154727 0.00382584 2.6526e-05 -4.47764e-06 1.01994 0
10861 1 4.97307 -6.44223 0.0104896 0.00176076 2.06736e-05 -9.56249e-06 1.01918 0
10856 1 4.67926 -6.35959 0.0136465 0.00289952 2.60681e-05 -7.81072e-06 1.01975 0
10859 1 4.82609 -6.37847 0.012399 0.00243583 2.41199e-05 -8.81038e-06 1.01948 0
10875 1 4.63939 -6.01294 0.0159563 0.00442841 2.26819e-05 -4.73814e-07 1.01948 0
10874 1 4.75745 -6.17873 0.0147361 0.00366346 2.38454e-05 -5.55999e-06 1.01958 0
10877 1 4.88827 -6.08745 0.0146104 0.00378614 1.9292e-05 -4.4328e-06 1.01942 0
10860 1 4.95456 -6.25329 0.0129741 0.00282822 2.04988e-05 -7.75773e-06 1.01942 0
10863 1 5.12241 -6.21097 0.012497 0.00263603 1.54243e-05 -7.5573e-06 1.01912 0
10878 1 5.04028 -6.03008 0.0142792 0.00363785 1.49242e-05 -4.6487e-06 1.01921 0
10864 1 5.15059 -6.3718 0.0104834 0.00179808 1.57838e-05 -9.12414e-06 1.01896 0
10881 1 5.19686 -6.05046 0.0135196 0.00316699 1.16266e-05 -5.35785e-06 1.01896 0
10501 1 5.31399 -6.3248 0.010314 0.00172664 1.0621e-05 -7.98877e-06 1.01869 0
10882 1 5.32504 -6.1448 0.0122206 0.00249346 9.16598e-06 -6.17426e-06 1.01874 0
10505 1 5.48932 -6.20399 0.0109805 0.00194229 4.83278e-06 -5.717e-06 1.0185 0
10508 1 5.47741 -6.3776 0.00895847 0.00130191 5.89035e-06 -6.96759e-06 1.01838 0
10506 1 5.64908 -6.10262 0.0114364 0.00204877 1.8851e-07 -3.4523e-06 1.01835 0
10515 1 5.63674 -6.46252 0.00726163 0.000897621 1.41615e-06 -5.39886e-06 1.01809 0
10509 1 5.66327 -6.27723 0.00955974 0.00143689 -9.91336e-08 -4.48275e-06 1.01829 0
10510 1 5.82336 -6.15823 0.0103785 0.00160163 -4.65735e-06 -1.90863e-06 1.01822 0
10513 1 6.05369 -6.08485 0.0105378 0.0014877 -9.90546e-06 7.82238e-07 1.01811 0
10516 1 5.80276 -6.3771 0.00794678 0.00100871 -3.85249e-06 -3.31965e-06 1.01811 0
10514 1 5.94701 -6.27122 0.00885769 0.00114664 -8.02488e-06 -1.0487e-06 1.01811 0
10182 1 6.04833 -6.45986 0.00637622 0.00065243 -9.53616e-06 -5.06939e-07 1.01792 0
10173 1 5.8737 -6.5156 0.00593286 0.000629304 -4.87097e-06 -2.6698e-06 1.01791 0
10517 1 6.22065 -6.05574 0.0104862 0.00133974 -1.29341e-05 2.52635e-06 1.01805 0
10518 1 6.10551 -6.27249 0.00851876 0.000987951 -1.16465e-05 8.56176e-07 1.01805 0
10177 1 6.26376 -6.22514 0.0087567 0.00093905 -1.43732e-05 2.58889e-06 1.01803 0
10181 1 6.22848 -6.41666 0.00664908 0.000619054 -1.3269e-05 1.57799e-06 1.01792 0
10175 1 6.4144 -6.18175 0.0089827 0.000883423 -1.59539e-05 3.85835e-06 1.01801 0
10179 1 6.57291 -6.21666 0.00843833 0.000696006 -1.66987e-05 4.72443e-06 1.01799 0
10185 1 6.3981 -6.39081 0.00674189 0.000558923 -1.54396e-05 3.11643e-06 1.01792 0
10186 1 6.57034 -6.39782 0.00648376 0.000453652 -1.61665e-05 4.14371e-06 1.01789 0
10183 1 6.74572 -6.21144 0.00832053 0.000581895 -1.62829e-05 5.36976e-06 1.01798 0
10190 1 6.93067 -6.18706 0.00841461 0.000495347 -1.4727e-05 5.78999e-06 1.01797 0
3102 1 6.75154 -6.38799 0.00644939 0.000381218 -1.57898e-05 4.87939e-06 1.01789 0
10192 1 6.92674 -6.36344 0.00660451 0.000331779 -1.45047e-05 5.32177e-06 1.01792 0
10187 1 7.10172 -6.14484 0.00870648 0.000435423 -1.25885e-05 5.99124e-06 1.01797 0
3104 1 7.2548 -6.19236 0.00816712 0.000314291 -1.05578e-05 5.88163e-06 1.01795 0
3107 1 7.09487 -6.35498 0.00659858 0.000276055 -1.25838e-05 5.4441e-06 1.01791 0
3150 1 7.3184 -6.49449 0.00498104 0.000138673 -9.02112e-06 4.51924e-06 1.0178 0
3115 1 7.14079 -6.51241 0.00483246 0.000168826 -1.0964e-05 4.62099e-06 1.01782 0
3108 1 7.32244 -6.32449 0.00680907 0.000210544 -9.58092e-06 5.36961e-06 1.01789 0
11189 1 2.08513 -5.99723 0.02 0 5.8619e-08 8.75784e-08 1 2
11190 1 2.28698 -5.98398 0.02 0 3.05021e-08 9.21639e-08 1 2
11191 1 2.1343 -5.80658 0.02 0 2.36744e-10 2.88577e-10 1 2
11192 1 2.32809 -5.77274 0.02 0 6.07381e-12 2.96671e-11 1 2
11193 1 2.47938 -5.95423 0.02 0 5.0586e-09 2.00992e-08 1 2
11194 1 2.52 -5.75045 0.02 0 9.91821e-13 7.2316e-12 1 2
11195 1 2.67229 -5.94497 0.02 0 2.33786e-09 1.30045e-08 1 2
11197 1 2.71077 -5.73937 0.02 0 2.99024e-13 2.40044e-12 1 2
11196 1 2.86284 -5.93286 0.02 0 1.16852e-09 6.34934e-09 1 2
11198 1 2.89449 -5.71422 0.02 0 4.30443e-14 3.87775e-13 1 2
11199 1 3.05053 -5.9393 0.02 0 1.49681e-09 8.26573e-09 1 2
11200 1 3.23156 -6.00316 0.02 0 5.56667e-08 1.52098e-07 1 2
11201 1 3.07757 -5.73109 0.02 0 1.51369e-13 1.27979e-12 1 2
11202 1 3.25372 -5.79421 0.02 0 9.28728e-12 8.62115e-11 1 2
11334 1 3.42258 -5.98742 0.02 0 -2.46515e-06 4.53935e-08 1 2
11335 1 3.6194 -5.98082 0.02 0 -0.000261987 8.53498e-07 1 2
11336 1 3.4447 -5.77786 0.02 0 -5.16028e-06 2.89693e-07 1 2
11337 1 3.63699 -5.78449 0.02 0 -0.000346848 8.9582e-06 1 2
10885 1 3.99957 -6.0118 0.02 0 -0.00246219 0.000414248 1.01332 2
10886 1 3.99979 -5.82536 0.02 0 -0.00257213 0.000448252 1.0144 2
11338 1 3.82724 -6.0038 0.02 0 -0.00192737 5.78227e-05 1 2
11339 1 3.83785 -5.81933 0.02 0 -0.00212843 6.58141e-05 1 2
10887 1 4.15612 -5.99685 0.0152201 0.00217112 -0.000197109 9.78737e-05 1.0226 0
10888 1 4.16382 -5.80202 0.0148911 0.00271919 -0.000192149 -2.28734e-05 1.02177 0
10889 1 4.31176 -5.93819 0.0157928 0.00380509 -3.5782e-05 2.01275e-05 1.02197 0
10891 1 4.32198 -5.75431 0.0155564 0.00393714 -1.8163e-05 2.0395e-06 1.02077 0
10890 1 4.47945 -5.87984 0.0163199 0.0044936 1.96152e-05 4.39893e-06 1.01974 0
10892 1 4.49188 -5.69651 0.0161104 0.00453575 1.54095e-05 6.37225e-06 1.01907 0
10876 1 4.78707 -5.93832 0.0156314 0.00448318 1.78277e-05 -9.2384e-07 1.01931 0
10879 1 4.94577 -5.88105 0.0152923 0.00433664 1.3713e-05 -1.69595e-06 1.01922 0
10893 1 4.64296 -5.81866 0.0161613 0.00476383 1.66365e-05 2.88249e-06 1.01912 0
10895 1 4.65776 -5.62745 0.0160832 0.0047986 1.12874e-05 4.12975e-06 1.0188 0
10894 1 4.8043 -5.7407 0.0159065 0.00479628 1.21866e-05 1.44233e-06 1.01909 0
10897 1 4.97157 -5.70006 0.0156848 0.00462806 9.87987e-06 5.8249e-08 1.01903 0
10880 1 5.11473 -5.82776 0.0150182 0.00409453 1.03328e-05 -2.39261e-06 1.01897 0
10883 1 5.27004 -5.90918 0.0141735 0.00349558 8.56636e-06 -3.80393e-06 1.01877 0
10898 1 5.13599 -5.62543 0.0156107 0.00442743 7.45679e-06 -8.33046e-07 1.01879 0
10901 1 5.2789 -5.71933 0.0150575 0.0039649 6.80448e-06 -2.13605e-06 1.01866 0
10884 1 5.42094 -5.84415 0.0141018 0.00333747 5.25883e-06 -3.04205e-06 1.01854 0
10902 1 5.43393 -5.62976 0.0150904 0.00379898 4.41704e-06 -1.66912e-06 1.01845 0
10522 1 5.45756 -6.02121 0.0127829 0.00269658 5.08497e-06 -4.31568e-06 1.01854 0
10523 1 5.61078 -5.92878 0.0130007 0.00268295 1.42336e-06 -2.71255e-06 1.01836 0
10521 1 5.56328 -5.75561 0.0142234 0.00325001 2.57888e-06 -1.9722e-06 1.01837 0
10524 1 5.72887 -5.75283 0.0138503 0.00290457 -5.42962e-07 -9.59391e-07 1.01825 0
10525 1 5.77801 -5.94263 0.0124331 0.00231599 -2.57508e-06 -1.36266e-06 1.01823 0
10527 1 5.92277 -5.99743 0.0116219 0.00191263 -6.32483e-06 -1.88678e-07 1.01817 0
10526 1 5.88765 -5.75323 0.0135037 0.0025812 -3.84672e-06 2.48211e-07 1.01816 0
10528 1 6.03311 -5.65852 0.0138084 0.00249299 -6.27414e-06 1.6359e-06 1.01807 0
10529 1 6.02689 -5.85241 0.0125389 0.00209906 -7.65744e-06 1.18124e-06 1.0181 0
10531 1 6.1826 -5.87082 0.0121073 0.00179787 -1.08752e-05 2.46762e-06 1.01804 0
10530 1 6.19785 -5.6459 0.0136255 0.0022064 -9.39488e-06 2.77021e-06 1.01801 0
10520 1 6.50415 -6.01941 0.0103859 0.00108287 -1.57533e-05 4.55162e-06 1.018 0
10532 1 6.32995 -5.76073 0.0126809 0.00178019 -1.23507e-05 3.54039e-06 1.01799 0
10535 1 6.35524 -5.94436 0.0112375 0.00140077 -1.40335e-05 3.6753e-06 1.01801 0
10534 1 6.4824 -5.65707 0.0131877 0.0017111 -1.32273e-05 4.25497e-06 1.01795 0
10537 1 6.65439 -5.64194 0.0131114 0.00147418 -1.38578e-05 4.90546e-06 1.01794 0
10536 1 6.52074 -5.82968 0.011926 0.00138781 -1.46341e-05 4.57487e-06 1.01798 0
10539 1 6.69402 -5.85385 0.0115463 0.00113267 -1.50823e-05 5.30081e-06 1.01796 0
10176 1 6.67235 -6.03461 0.0100555 0.000885823 -1.61022e-05 5.30348e-06 1.01799 0
10180 1 6.84655 -6.02993 0.00993266 0.000737803 -1.521e-05 5.81993e-06 1.01797 0
10193 1 6.81772 -5.71406 0.0124759 0.00116451 -1.38318e-05 5.56034e-06 1.01793 0
10195 1 6.90061 -5.86234 0.0112927 0.00089549 -1.40121e-05 5.90225e-06 1.01794 0
10184 1 7.03699 -5.98785 0.0101538 0.00063338 -1.31591e-05 6.1067e-06 1.01795 0
10197 1 7.00818 -5.69742 0.0124552 0.000952775 -1.21939e-05 5.98583e-06 1.01791 0
10198 1 7.12598 -5.83852 0.0113266 0.000699467 -1.1473e-05 6.26496e-06 1.01791 0
10199 1 7.2448 -5.68507 0.0124134 0.00070032 -9.28479e-06 6.37565e-06 1.01787 0
10201 1 7.31933 -5.84889 0.0111506 0.000518945 -8.75026e-06 6.45208e-06 1.01788 0
10365 1 5.79464 -0.246781 0.0156597 -0.000217894 7.13978e-06 -8.37151e-06 1.01781 0
10188 1 7.25682 -6.01019 0.00983955 0.000449475 -1.01376e-05 6.20483e-06 1.01793 0
10362 1 5.95959 -0.348321 0.015667 -0.000210987 4.06029e-06 -8.15601e-06 1.01777 0
11203 1 2.13956 -5.61253 0.02 0 0 0 1 2
11204 1 2.34142 -5.56602 0.02 0 0 0 1 2
11205 1 2.14602 -5.41997 0.02 0 0 0 1 2
11206 1 2.35453 -5.36883 0.02 0 0 0 1 2
11207 1 2.15341 -5.227 0.02 0 0 0 1 2
11208 1 2.54286 -5.55149 0.02 0 0 0 1 2
11209 1 2.56086 -5.35484 0.02 0 0 0 1 2
11210 1 2.74164 -5.5274 0.02 0 0 0 1 2
11211 1 2.76277 -5.32498 0.02 0 0 0 1 2
11212 1 2.94011 -5.51011 0.02 0 0 0 1 2
11213 1 2.96499 -5.31287 0.02 0 0 0 1 2
11214 1 3.13425 -5.52818 0.02 0 0 0 1 2
11216 1 3.16277 -5.32207 0.02 0 0 0 1 2
11215 1 3.31727 -5.59044 0.02 0 -5.18279e-14 2.91722e-13 1 2
11344 1 3.3488 -5.38676 0.02 0 -5.97161e-13 3.62053e-15 1 2
11340 1 3.51197 -5.56435 0.02 0 -2.94473e-05 2.40993e-06 1 2
11341 1 3.70282 -5.59446 0.02 0 -0.000807732 3.72749e-05 1 2
11342 1 3.53741 -5.34272 0.02 0 -4.33281e-05 1.61198e-06 1 2
11343 1 3.72094 -5.3905 0.02 0 -0.000946953 3.76768e-05 1 2
10905 1 4.02239 -5.6271 0.0146637 0.00113025 -3.19895e-05 2.7461e-05 1.01713 0
10906 1 4.04231 -5.42239 0.0143027 0.00116847 3.54779e-06 9.23546e-06 1.01823 0
11345 1 3.89437 -5.63453 0.02 0 -0.0034882 0.000161525 1 2
11346 1 3.9103 -5.43321 0.02 0 -0.00382234 0.000269153 1 2
11347 1 3.90705 -5.22302 0.02 0 -0.00373419 0.000198377 1 2
10907 1 4.17942 -5.59288 0.0138409 0.00266224 -1.36424e-05 -1.20221e-06 1.021 0
10908 1 4.18686 -5.36618 0.0136809 0.00225296 5.02871e-06 9.16577e-06 1.02068 0
10909 1 4.33873 -5.57261 0.0152713 0.0037901 9.45572e-06 7.24007e-06 1.01975 0
10910 1 4.34515 -5.39585 0.0151625 0.00343504 8.59981e-06 8.46985e-06 1.01931 0
10911 1 4.50395 -5.50954 0.0158698 0.00433699 1.18569e-05 8.22341e-06 1.0186 0
10912 1 4.50475 -5.31833 0.0157336 0.00398269 7.55452e-06 7.21375e-06 1.01836 0
10896 1 4.81845 -5.5456 0.0159951 0.00484126 8.6233e-06 2.49996e-06 1.01887 0
10899 1 4.9851 -5.52002 0.0159275 0.00474374 7.33037e-06 9.23498e-07 1.01885 0
10915 1 4.66357 -5.2434 0.0159346 0.00431878 6.23953e-06 4.89686e-06 1.01836 0
10913 1 4.66426 -5.43639 0.0159824 0.00461598 8.16515e-06 4.72812e-06 1.01856 0
10914 1 4.81993 -5.34938 0.0160315 0.00470266 6.63704e-06 2.90533e-06 1.01867 0
10916 1 4.82078 -5.15434 0.0160653 0.00446419 5.21686e-06 2.60102e-06 1.0185 0
10917 1 4.98843 -5.34486 0.0160773 0.00472056 5.78734e-06 1.09883e-06 1.0187 0
10919 1 4.9925 -5.17426 0.0161775 0.00460167 4.92168e-06 7.96067e-07 1.01856 0
10903 1 5.29741 -5.5181 0.0156709 0.00424727 5.41217e-06 -1.13007e-06 1.01854 0
10900 1 5.15067 -5.42845 0.0159796 0.00456465 5.76811e-06 -2.18142e-07 1.01863 0