ITEM: TIMESTEP
60000
ITEM: NUMBER OF ATOMS
12078
ITEM: BOX BOUNDS ff ff pp
0.0000000000000000e+00 2.2000000000000000e+01
-1.0000000000000000e+01 1.0000000000000000e+01
-2.0000000000000000e-02 2.0000000000000000e-02
ITEM: ATOMS id type x y vx vy fx fy c_den c_phase
1501 2 2 -10 0 0 0 0 1 5
1535 2 2 -9.8 0 0 0 0 1 5
1569 2 2 -9.6 0 0 0 0 1 5
1502 2 2.2 -10 0 0 0 0 1 5
1503 2 2.4 -10 0 0 0 0 1 5
1536 2 2.2 -9.8 0 0 0 0 1 5
1537 2 2.4 -9.8 0 0 0 0 1 5
1570 2 2.2 -9.6 0 0 0 0 1 5
1571 2 2.4 -9.6 0 0 0 0 1 5
1504 2 2.6 -10 0 0 0 0 1 5
1505 2 2.8 -10 0 0 0 0 1 5
1538 2 2.6 -9.8 0 0 0 0 1 5
1539 2 2.8 -9.8 0 0 0 0 1 5
1572 2 2.6 -9.6 0 0 0 0 1 5
1573 2 2.8 -9.6 0 0 0 0 1 5
1506 2 3 -10 0 0 0 0 1 5
1540 2 3 -9.8 0 0 0 0 1 5
1574 2 3 -9.6 0 0 0 0 1 5
1507 2 3.2 -10 0 0 0 0 1 5
1541 2 3.2 -9.8 0 0 0 0 1 5
1575 2 3.2 -9.6 0 0 0 0 1 5
1508 2 3.4 -10 0 0 0 0 1 5
1542 2 3.4 -9.8 0 0 0 0 1 5
1576 2 3.4 -9.6 0 0 0 0 1 5
1509 2 3.6 -10 0 0 0 0 1 5
1543 2 3.6 -9.8 0 0 0 0 1 5
1577 2 3.6 -9.6 0 0 0 0 1 5
1510 2 3.8 -10 0 0 0 0 1 5
1544 2 3.8 -9.8 0 0 0 0 1 5
1578 2 3.8 -9.6 0 0 0 0 1 5
1511 2 4 -10 0 0 0 0 1 5
1512 2 4.2 -10 0 0 0 0 1 5
1545 2 4 -9.8 0 0 0 0 1 5
1546 2 4.2 -9.8 0 0 0 0 1 5
1579 2 4 -9.6 0 0 0 0 1 5
1580 2 4.2 -9.6 0 0 0 0 1 5
1513 2 4.4 -10 0 0 0 0 1 5
1514 2 4.6 -10 0 0 0 0 1 5
1547 2 4.4 -9.8 0 0 0 0 1 5
1548 2 4.6 -9.8 0 0 0 0 1 5
1581 2 4.4 -9.6 0 0 0 0 1 5
1582 2 4.6 -9.6 0 0 0 0 1 5
1515 2 4.8 -10 0 0 0 0 1 5
1516 2 5 -10 0 0 0 0 1 5
1549 2 4.8 -9.8 0 0 0 0 1 5
1550 2 5 -9.8 0 0 0 0 1 5
1583 2 4.8 -9.6 0 0 0 0 1 5
1584 2 5 -9.6 0 0 0 0 1 5
1517 2 5.2 -10 0 0 0 0 1 5
1518 2 5.4 -10 0 0 0 0 1 5
1551 2 5.2 -9.8 0 0 0 0 1 5
1552 2 5.4 -9.8 0 0 0 0 1 5
1585 2 5.2 -9.6 0 0 0 0 1 5
1586 2 5.4 -9.6 0 0 0 0 1 5
1519 2 5.6 -10 0 0 0 0 1 5
1553 2 5.6 -9.8 0 0 0 0 1 5
1587 2 5.6 -9.6 0 0 0 0 1 5
1520 2 5.8 -10 0 0 0 0 1 5
1554 2 5.8 -9.8 0 0 0 0 1 5
1588 2 5.8 -9.6 0 0 0 0 1 5
1521 2 6 -10 0 0 0 0 1 5
1555 2 6 -9.8 0 0 0 0 1 5
1589 2 6 -9.6 0 0 0 0 1 5
1522 2 6.2 -10 0 0 0 0 1 5
1523 2 6.4 -10 0 0 0 0 1 5
1556 2 6.2 -9.8 0 0 0 0 1 5
1557 2 6.4 -9.8 0 0 0 0 1 5
1590 2 6.2 -9.6 0 0 0 0 1 5
1591 2 6.4 -9.6 0 0 0 0 1 5
1524 2 6.6 -10 0 0 0 0 1 5
1525 2 6.8 -10 0 0 0 0 1 5
1558 2 6.6 -9.8 0 0 0 0 1 5
1559 2 6.8 -9.8 0 0 0 0 1 5
1592 2 6.6 -9.6 0 0 0 0 1 5
1593 2 6.8 -9.6 0 0 0 0 1 5
1526 2 7 -10 0 0 0 0 1 5
1527 2 7.2 -10 0 0 0 0 1 5
1560 2 7 -9.8 0 0 0 0 1 5
1561 2 7.2 -9.8 0 0 0 0 1 5
1594 2 7 -9.6 0 0 0 0 1 5
1595 2 7.2 -9.6 0 0 0 0 1 5
1603 2 2 -9.4 0 0 0 0 1 5
1637 2 2 -9.2 0 0 0 0 1 5
1604 2 2.2 -9.4 0 0 0 0 1 5
1605 2 2.4 -9.4 0 0 0 0 1 5
1638 2 2.2 -9.2 0 0 0 0 1 5
1639 2 2.4 -9.2 0 0 0 0 1 5
1606 2 2.6 -9.4 0 0 0 0 1 5
1607 2 2.8 -9.4 0 0 0 0 1 5
1640 2 2.6 -9.2 0 0 0 0 1 5
1641 2 2.8 -9.2 0 0 0 0 1 5
1608 2 3 -9.4 0 0 0 0 1 5
1642 2 3 -9.2 0 0 0 0 1 5
1609 2 3.2 -9.4 0 0 0 0 1 5
1643 2 3.2 -9.2 0 0 0 0 1 5
1610 2 3.4 -9.4 0 0 0 0 1 5
1644 2 3.4 -9.2 0 0 0 0 1 5
1611 2 3.6 -9.4 0 0 0 0 1 5
1645 2 3.6 -9.2 0 0 0 0 1 5
1612 2 3.8 -9.4 0 0 0 0 1 5
1646 2 3.8 -9.2 0 0 0 0 1 5
1613 2 4 -9.4 0 0 0 0 1 5
1614 2 4.2 -9.4 0 0 0 0 1 5
1647 2 4 -9.2 0 0 0 0 1 5
1648 2 4.2 -9.2 0 0 0 0 1 5
1615 2 4.4 -9.4 0 0 0 0 1 5
1616 2 4.6 -9.4 0 0 0 0 1 5
1649 2 4.4 -9.2 0 0 0 0 1 5
1650 2 4.6 -9.2 0 0 0 0 1 5
1617 2 4.8 -9.4 0 0 0 0 1 5
1618 2 5 -9.4 0 0 0 0 1 5
1651 2 4.8 -9.2 0 0 0 0 1 5
1652 2 5 -9.2 0 0 0 0 1 5
1619 2 5.2 -9.4 0 0 0 0 1 5
1620 2 5.4 -9.4 0 0 0 0 1 5
1653 2 5.2 -9.2 0 0 0 0 1 5
1654 2 5.4 -9.2 0 0 0 0 1 5
1621 2 5.6 -9.4 0 0 0 0 1 5
1655 2 5.6 -9.2 0 0 0 0 1 5
1622 2 5.8 -9.4 0 0 0 0 1 5
1656 2 5.8 -9.2 0 0 0 0 1 5
1623 2 6 -9.4 0 0 0 0 1 5
1657 2 6 -9.2 0 0 0 0 1 5
1624 2 6.2 -9.4 0 0 0 0 1 5
1625 2 6.4 -9.4 0 0 0 0 1 5
1658 2 6.2 -9.2 0 0 0 0 1 5
1659 2 6.4 -9.2 0 0 0 0 1 5
1626 2 6.6 -9.4 0 0 0 0 1 5
1627 2 6.8 -9.4 0 0 0 0 1 5
1660 2 6.6 -9.2 0 0 0 0 1 5
1661 2 6.8 -9.2 0 0 0 0 1 5
1628 2 7 -9.4 0 0 0 0 1 5
1629 2 7.2 -9.4 0 0 0 0 1 5
1662 2 7 -9.2 0 0 0 0 1 5
1663 2 7.2 -9.2 0 0 0 0 1 5
1671 2 2 -9 0 0 0 0 1 5
1705 2 2 -8.8 0 0 0 0 1 5
1672 2 2.2 -9 0 0 0 0 1 5
1673 2 2.4 -9 0 0 0 0 1 5
1706 2 2.2 -8.8 0 0 0 0 1 5
1707 2 2.4 -8.8 0 0 0 0 1 5
1674 2 2.6 -9 0 0 0 0 1 5
1675 2 2.8 -9 0 0 0 0 1 5
1708 2 2.6 -8.8 0 0 0 0 1 5
1709 2 2.8 -8.8 0 0 0 0 1 5
1676 2 3 -9 0 0 0 0 1 5
1710 2 3 -8.8 0 0 0 0 1 5
1677 2 3.2 -9 0 0 0 0 1 5
1711 2 3.2 -8.8 0 0 0 0 1 5
1678 2 3.4 -9 0 0 0 0 1 5
1712 2 3.4 -8.8 0 0 0 0 1 5
1679 2 3.6 -9 0 0 0 0 1 5
1713 2 3.6 -8.8 0 0 0 0 1 5
1680 2 3.8 -9 0 0 0 0 1 5
1714 2 3.8 -8.8 0 0 0 0 1 5
1681 2 4 -9 0 0 0 0 1 5
1682 2 4.2 -9 0 0 0 0 1 5
1715 2 4 -8.8 0 0 0 0 1 5
1716 2 4.2 -8.8 0 0 0 0 1 5
1683 2 4.4 -9 0 0 0 0 1 5
1684 2 4.6 -9 0 0 0 0 1 5
1717 2 4.4 -8.8 0 0 0 0 1 5
1718 2 4.6 -8.8 0 0 0 0 1 5
1685 2 4.8 -9 0 0 0 0 1 5
1686 2 5 -9 0 0 0 0 1 5
1719 2 4.8 -8.8 0 0 0 0 1 5
1720 2 5 -8.8 0 0 0 0 1 5
1687 2 5.2 -9 0 0 0 0 1 5
1688 2 5.4 -9 0 0 0 0 1 5
1721 2 5.2 -8.8 0 0 0 0 1 5
1722 2 5.4 -8.8 0 0 0 0 1 5
1689 2 5.6 -9 0 0 0 0 1 5
1723 2 5.6 -8.8 0 0 0 0 1 5
1690 2 5.8 -9 0 0 0 0 1 5
1724 2 5.8 -8.8 0 0 0 0 1 5
1691 2 6 -9 0 0 0 0 1 5
1725 2 6 -8.8 0 0 0 0 1 5
1692 2 6.2 -9 0 0 0 0 1 5
1693 2 6.4 -9 0 0 0 0 1 5
1726 2 6.2 -8.8 0 0 0 0 1 5
1727 2 6.4 -8.8 0 0 0 0 1 5
1694 2 6.6 -9 0 0 0 0 1 5
1695 2 6.8 -9 0 0 0 0 1 5
1728 2 6.6 -8.8 0 0 0 0 1 5
1729 2 6.8 -8.8 0 0 0 0 1 5
1696 2 7 -9 0 0 0 0 1 5
1697 2 7.2 -9 0 0 0 0 1 5
1730 2 7 -8.8 0 0 0 0 1 5
1731 2 7.2 -8.8 0 0 0 0 1 5
1739 2 2 -8.6 0 0 0 0 1 5
1773 2 2 -8.4 0 0 0 0 1 5
1740 2 2.2 -8.6 0 0 0 0 1 5
1741 2 2.4 -8.6 0 0 0 0 1 5
1774 2 2.2 -8.4 0 0 0 0 1 5
1775 2 2.4 -8.4 0 0 0 0 1 5
1742 2 2.6 -8.6 0 0 0 0 1 5
1743 2 2.8 -8.6 0 0 0 0 1 5
1776 2 2.6 -8.4 0 0 0 0 1 5
1777 2 2.8 -8.4 0 0 0 0 1 5
1744 2 3 -8.6 0 0 0 0 1 5
1778 2 3 -8.4 0 0 0 0 1 5
1745 2 3.2 -8.6 0 0 0 0 1 5
1779 2 3.2 -8.4 0 0 0 0 1 5
1746 2 3.4 -8.6 0 0 0 0 1 5
1780 2 3.4 -8.4 0 0 0 0 1 5
1747 2 3.6 -8.6 0 0 0 0 1 5
1781 2 3.6 -8.4 0 0 0 0 1 5
1748 2 3.8 -8.6 0 0 0 0 1 5
1782 2 3.8 -8.4 0 0 0 0 1 5
1749 2 4 -8.6 0 0 0 0 1 5
1750 2 4.2 -8.6 0 0 0 0 1 5
1783 2 4 -8.4 0 0 0 0 1 5
1784 2 4.2 -8.4 0 0 0 0 1 5
1751 2 4.4 -8.6 0 0 0 0 1 5
1752 2 4.6 -8.6 0 0 0 0 1 5
1785 2 4.4 -8.4 0 0 0 0 1 5
1786 2 4.6 -8.4 0 0 0 0 1 5
1753 2 4.8 -8.6 0 0 0 0 1 5
1754 2 5 -8.6 0 0 0 0 1 5
1787 2 4.8 -8.4 0 0 0 0 1 5
1788 2 5 -8.4 0 0 0 0 1 5
1755 2 5.2 -8.6 0 0 0 0 1 5
1756 2 5.4 -8.6 0 0 0 0 1 5
1789 2 5.2 -8.4 0 0 0 0 1 5
1790 2 5.4 -8.4 0 0 0 0 1 5
1757 2 5.6 -8.6 0 0 0 0 1 5
1791 2 5.6 -8.4 0 0 0 0 1 5
1758 2 5.8 -8.6 0 0 0 0 1 5
1792 2 5.8 -8.4 0 0 0 0 1 5
1759 2 6 -8.6 0 0 0 0 1 5
1793 2 6 -8.4 0 0 0 0 1 5
1760 2 6.2 -8.6 0 0 0 0 1 5
1761 2 6.4 -8.6 0 0 0 0 1 5
1794 2 6.2 -8.4 0 0 0 0 1 5
1795 2 6.4 -8.4 0 0 0 0 1 5
1762 2 6.6 -8.6 0 0 0 0 1 5
1763 2 6.8 -8.6 0 0 0 0 1 5
1796 2 6.6 -8.4 0 0 0 0 1 5
1797 2 6.8 -8.4 0 0 0 0 1 5
1764 2 7 -8.6 0 0 0 0 1 5
1765 2 7.2 -8.6 0 0 0 0 1 5
1798 2 7 -8.4 0 0 0 0 1 5
1799 2 7.2 -8.4 0 0 0 0 1 5
1807 2 2 -8.2 0 0 0 0 1 5
1841 2 2 -8 0 0 0 0 1 5
1808 2 2.2 -8.2 0 0 0 0 1 5
1809 2 2.4 -8.2 0 0 0 0 1 5
1842 2 2.2 -8 0 0 0 0 1 5
1843 2 2.4 -8 0 0 0 0 1 5
1810 2 2.6 -8.2 0 0 0 0 1 5
1811 2 2.8 -8.2 0 0 0 0 1 5
1844 2 2.6 -8 0 0 0 0 1 5
1845 2 2.8 -8 0 0 0 0 1 5
1812 2 3 -8.2 0 0 0 0 1 5
1846 2 3 -8 0 0 0 0 1 5
1813 2 3.2 -8.2 0 0 0 0 1 5
1847 2 3.2 -8 0 0 0 0 1 5
1814 2 3.4 -8.2 0 0 0 0 1 5
1848 2 3.4 -8 0 0 0 0 1 5
1815 2 3.6 -8.2 0 0 0 0 1 5
1849 2 3.6 -8 0 0 0 0 1 5
1816 2 3.8 -8.2 0 0 0 0 1 5
1850 2 3.8 -8 0 0 0 0 1 5
1817 2 4 -8.2 0 0 0 0 1 5
1818 2 4.2 -8.2 0 0 0 0 1 5
1851 2 4 -8 0 0 0 0 1 5
1852 2 4.2 -8 0 0 0 0 1 5
1819 2 4.4 -8.2 0 0 0 0 1 5
1820 2 4.6 -8.2 0 0 0 0 1 5
1853 2 4.4 -8 0 0 0 0 1 5
1854 2 4.6 -8 0 0 0 0 1 5
1821 2 4.8 -8.2 0 0 0 0 1 5
1822 2 5 -8.2 0 0 0 0 1 5
1855 2 4.8 -8 0 0 0 0 1 5
1856 2 5 -8 0 0 0 0 1 5
1823 2 5.2 -8.2 0 0 0 0 1 5
1824 2 5.4 -8.2 0 0 0 0 1 5
1857 2 5.2 -8 0 0 0 0 1 5
1858 2 5.4 -8 0 0 0 0 1 5
1825 2 5.6 -8.2 0 0 0 0 1 5
1859 2 5.6 -8 0 0 0 0 1 5
1826 2 5.8 -8.2 0 0 0 0 1 5
1860 2 5.8 -8 0 0 0 0 1 5
1827 2 6 -8.2 0 0 0 0 1 5
1861 2 6 -8 0 0 0 0 1 5
1828 2 6.2 -8.2 0 0 0 0 1 5
1829 2 6.4 -8.2 0 0 0 0 1 5
1862 2 6.2 -8 0 0 0 0 1 5
1863 2 6.4 -8 0 0 0 0 1 5
1830 2 6.6 -8.2 0 0 0 0 1 5
1831 2 6.8 -8.2 0 0 0 0 1 5
1864 2 6.6 -8 0 0 0 0 1 5
1865 2 6.8 -8 0 0 0 0 1 5
1832 2 7 -8.2 0 0 0 0 1 5
1833 2 7.2 -8.2 0 0 0 0 1 5
1866 2 7 -8 0 0 0 0 1 5
1867 2 7.2 -8 0 0 0 0 1 5
1875 2 2 -7.8 0 0 0 0 1 5
1909 2 2 -7.6 0 0 0 0 1 5
1943 2 2 -7.4 0 0 0 0 1.00124 5
1876 2 2.2 -7.8 0 0 0 0 1 5
1877 2 2.4 -7.8 0 0 0 0 1 5
1910 2 2.2 -7.6 0 0 0 0 1 5
1911 2 2.4 -7.6 0 0 0 0 1 5
1944 2 2.2 -7.4 0 0 0 0 1.00071 5
1945 2 2.4 -7.4 0 0 0 0 0.998494 5
1878 2 2.6 -7.8 0 0 0 0 1 5
1879 2 2.8 -7.8 0 0 0 0 1 5
1912 2 2.6 -7.6 0 0 0 0 1 5
1913 2 2.8 -7.6 0 0 0 0 1 5
1946 2 2.6 -7.4 0 0 0 0 1.00117 5
1947 2 2.8 -7.4 0 0 0 0 1.00015 5
1880 2 3 -7.8 0 0 0 0 1 5
1914 2 3 -7.6 0 0 0 0 1 5
1948 2 3 -7.4 0 0 0 0 0.999926 5
1881 2 3.2 -7.8 0 0 0 0 1 5
1915 2 3.2 -7.6 0 0 0 0 1 5
1949 2 3.2 -7.4 0 0 0 0 1.00101 5
1882 2 3.4 -7.8 0 0 0 0 1 5
1916 2 3.4 -7.6 0 0 0 0 1 5
1950 2 3.4 -7.4 0 0 0 0 1.00052 5
1883 2 3.6 -7.8 0 0 0 0 1 5
1917 2 3.6 -7.6 0 0 0 0 1 5
1951 2 3.6 -7.4 0 0 0 0 0.998033 5
1884 2 3.8 -7.8 0 0 0 0 1 5
1918 2 3.8 -7.6 0 0 0 0 1 5
1952 2 3.8 -7.4 0 0 0 0 1.02153 5
1885 2 4 -7.8 0 0 0 0 1 5
1886 2 4.2 -7.8 0 0 0 0 1 5
1919 2 4 -7.6 0 0 0 0 1 5
1920 2 4.2 -7.6 0 0 0 0 1 5
1953 2 4 -7.4 0 0 0 0 1.03402 5
1954 2 4.2 -7.4 0 0 0 0 1.04253 5
1887 2 4.4 -7.8 0 0 0 0 1 5
1888 2 4.6 -7.8 0 0 0 0 1 5
1921 2 4.4 -7.6 0 0 0 0 1 5
1922 2 4.6 -7.6 0 0 0 0 1 5
1955 2 4.4 -7.4 0 0 0 0 1.03882 5
1956 2 4.6 -7.4 0 0 0 0 1.03587 5
1889 2 4.8 -7.8 0 0 0 0 1 5
1890 2 5 -7.8 0 0 0 0 1 5
1923 2 4.8 -7.6 0 0 0 0 1 5
1924 2 5 -7.6 0 0 0 0 1 5
1957 2 4.8 -7.4 0 0 0 0 1.03461 5
1958 2 5 -7.4 0 0 0 0 1.03453 5
1891 2 5.2 -7.8 0 0 0 0 1 5
1892 2 5.4 -7.8 0 0 0 0 1 5
1925 2 5.2 -7.6 0 0 0 0 1 5
1926 2 5.4 -7.6 0 0 0 0 1 5
1959 2 5.2 -7.4 0 0 0 0 1.03431 5
1960 2 5.4 -7.4 0 0 0 0 1.03428 5
1893 2 5.6 -7.8 0 0 0 0 1 5
1927 2 5.6 -7.6 0 0 0 0 1 5
1961 2 5.6 -7.4 0 0 0 0 1.03432 5
1894 2 5.8 -7.8 0 0 0 0 1 5
1928 2 5.8 -7.6 0 0 0 0 1 5
1962 2 5.8 -7.4 0 0 0 0 1.03429 5
1895 2 6 -7.8 0 0 0 0 1 5
1929 2 6 -7.6 0 0 0 0 1 5
1963 2 6 -7.4 0 0 0 0 1.03391 5
1896 2 6.2 -7.8 0 0 0 0 1 5
1897 2 6.4 -7.8 0 0 0 0 1 5
1930 2 6.2 -7.6 0 0 0 0 1 5
1931 2 6.4 -7.6 0 0 0 0 1 5
1964 2 6.2 -7.4 0 0 0 0 1.03384 5
1965 2 6.4 -7.4 0 0 0 0 1.03413 5
1898 2 6.6 -7.8 0 0 0 0 1 5
1899 2 6.8 -7.8 0 0 0 0 1 5
1932 2 6.6 -7.6 0 0 0 0 1 5
1933 2 6.8 -7.6 0 0 0 0 1 5
1966 2 6.6 -7.4 0 0 0 0 1.03395 5
1967 2 6.8 -7.4 0 0 0 0 1.03379 5
1900 2 7 -7.8 0 0 0 0 1 5
1901 2 7.2 -7.8 0 0 0 0 1 5
1934 2 7 -7.6 0 0 0 0 1 5
1935 2 7.2 -7.6 0 0 0 0 1 5
1968 2 7 -7.4 0 0 0 0 1.03377 5
1969 2 7.2 -7.4 0 0 0 0 1.03374 5
1977 2 2 -7.2 0 0 0 0 1.00421 5
2011 2 2 -7 0 0 0 0 1.00473 5
1978 2 2.2 -7.2 0 0 0 0 0.999193 5
1979 2 2.4 -7.2 0 0 0 0 0.999803 5
2012 2 2.2 -7 0 0 0 0 0.99995 5
2013 2 2.4 -7 0 0 0 0 0.999868 5
1980 2 2.6 -7.2 0 0 0 0 1.00102 5
1981 2 2.8 -7.2 0 0 0 0 0.999246 5
2014 2 2.6 -7 0 0 0 0 1.00051 5
2015 2 2.8 -7 0 0 0 0 0.999649 5
1982 2 3 -7.2 0 0 0 0 1.00002 5
2016 2 3 -7 0 0 0 0 0.999998 5
1983 2 3.2 -7.2 0 0 0 0 1.00114 5
2017 2 3.2 -7 0 0 0 0 1.00056 5
1984 2 3.4 -7.2 0 0 0 0 0.999448 5
2018 2 3.4 -7 0 0 0 0 0.999922 5
1985 2 3.6 -7.2 0 0 0 0 1.00139 5
2019 2 3.6 -7 0 0 0 0 1.00238 5
1986 2 3.8 -7.2 0 0 0 0 1.01466 5
2020 2 3.8 -7 0 0 0 0 1.0138 5
1987 2 4 -7.2 0 0 0 0 1.02848 5
1988 2 4.2 -7.2 0 0 0 0 1.03889 5
2021 2 4 -7 0 0 0 0 1.02605 5
2022 2 4.2 -7 0 0 0 0 1.03667 5
1989 2 4.4 -7.2 0 0 0 0 1.04039 5
1990 2 4.6 -7.2 0 0 0 0 1.03674 5
2023 2 4.4 -7 0 0 0 0 1.04086 5
2024 2 4.6 -7 0 0 0 0 1.03762 5
1991 2 4.8 -7.2 0 0 0 0 1.03556 5
1992 2 5 -7.2 0 0 0 0 1.03555 5
2025 2 4.8 -7 0 0 0 0 1.03626 5
2026 2 5 -7 0 0 0 0 1.0363 5
1993 2 5.2 -7.2 0 0 0 0 1.03548 5
1994 2 5.4 -7.2 0 0 0 0 1.03536 5
2027 2 5.2 -7 0 0 0 0 1.03627 5
2028 2 5.4 -7 0 0 0 0 1.03605 5
1995 2 5.6 -7.2 0 0 0 0 1.03527 5
2029 2 5.6 -7 0 0 0 0 1.03598 5
1996 2 5.8 -7.2 0 0 0 0 1.03518 5
2030 2 5.8 -7 0 0 0 0 1.03587 5
1997 2 6 -7.2 0 0 0 0 1.03492 5
2031 2 6 -7 0 0 0 0 1.03562 5
1998 2 6.2 -7.2 0 0 0 0 1.03481 5
1999 2 6.4 -7.2 0 0 0 0 1.03471 5
2032 2 6.2 -7 0 0 0 0 1.03546 5
2033 2 6.4 -7 0 0 0 0 1.03526 5
2000 2 6.6 -7.2 0 0 0 0 1.03458 5
2001 2 6.8 -7.2 0 0 0 0 1.03448 5
2034 2 6.6 -7 0 0 0 0 1.03514 5
2035 2 6.8 -7 0 0 0 0 1.03507 5
2002 2 7 -7.2 0 0 0 0 1.03438 5
2003 2 7.2 -7.2 0 0 0 0 1.03427 5
2036 2 7 -7 0 0 0 0 1.03493 5
2037 2 7.2 -7 0 0 0 0 1.03479 5
13969 1 2.01881 -6.75534 0.02 0 -0.00448733 -0.000610348 1 2
13968 1 2.0458 -6.58047 0.02 0 -0.000102127 0.000144954 1 2
13970 1 2.22252 -6.7545 0.02 0 -0.00235422 -0.000448027 1 2
13971 1 2.42134 -6.73795 0.02 0 -0.00236221 -0.000566548 1 2
13972 1 2.26221 -6.57021 0.02 0 0.000370603 0.000679597 1 2
13973 1 2.46837 -6.55898 0.02 0 0.000196236 0.000592314 1 2
13974 1 2.61891 -6.75641 0.02 0 -0.0029497 -0.000603284 1 2
13975 1 2.81568 -6.75355 0.02 0 -0.00294479 -0.00058977 1 2
13976 1 2.66466 -6.56659 0.02 0 0.000133418 0.000551762 1 2
13977 1 2.86011 -6.56457 0.02 0 0.000116778 0.000550782 1 2
13978 1 3.01439 -6.74256 0.02 0 -0.00264832 -0.00058698 1 2
13979 1 3.21287 -6.75576 0.02 0 -0.00292311 -0.00055722 1 2
13980 1 3.05461 -6.56 0.02 0 0.000130567 0.000533845 1 2
13981 1 3.24501 -6.56034 0.02 0 0.000128904 0.000479502 1 2
13982 1 3.41338 -6.76076 0.02 0 -0.00306119 -0.00040318 1 2
13983 1 3.61552 -6.74084 0.02 0 -0.00361627 -0.000152064 1 2
13984 1 3.43714 -6.57482 0.02 0 8.79408e-05 0.000487207 1 2
13985 1 3.64567 -6.55934 0.02 0 -0.0011494 0.000495959 1 2
13640 1 3.99963 -6.74033 0.02 0 -0.0072922 0.00021855 1.01613 2
13642 1 3.99978 -6.55598 0.02 0 -0.00500773 0.000488634 1.0296 2
13986 1 3.81331 -6.75664 0.02 0 -0.008981 3.64353e-05 1 2
13987 1 3.84905 -6.56809 0.02 0 -0.00492284 6.65815e-05 1 2
13641 1 4.11917 -6.69928 0.00820575 0.0012796 -0.00134614 -0.000307915 1.04143 0
13643 1 4.18524 -6.49355 0.0102811 0.00308278 -0.000406355 -0.000132814 1.04355 0
13646 1 3.9995 -6.59705 0.02 0 -0.00522937 0.000493732 1.03009 2
13644 1 4.02478 -6.82004 0.00174001 -0.00122782 -0.000244506 0.000109237 1.04324 0
13645 1 4.23585 -6.6535 0.0082736 0.00128491 -0.000474193 -3.10184e-05 1.04415 0
13647 1 4.34376 -6.53856 0.0104518 0.00227481 -8.12768e-05 -6.27773e-06 1.04134 0
13648 1 4.47866 -6.55994 0.010056 0.0017403 8.32087e-06 -6.99635e-06 1.03793 0
13649 1 4.31044 -6.7622 0.00463119 -0.000761454 -0.000205218 3.07505e-05 1.04591 0
13652 1 4.63189 -6.60247 0.00835699 0.00122315 1.7458e-05 -9.62375e-06 1.03627 0
13656 1 4.44972 -6.72308 0.00618926 0.000225114 -1.49201e-05 -1.12684e-06 1.03957 0
13653 1 4.73721 -6.48463 0.0098271 0.00165271 7.42449e-06 -1.56431e-05 1.03625 0
13659 1 4.85369 -6.54333 0.00810079 0.00112855 1.99702e-06 -1.47697e-05 1.03608 0
13274 1 4.57987 -6.76466 0.00473994 2.12189e-05 1.64662e-05 -5.00349e-06 1.03808 0
13276 1 4.72908 -6.74977 0.00426064 8.55796e-05 7.88377e-06 -8.52646e-06 1.037 0
13280 1 4.87647 -6.66946 0.00530839 0.000549415 9.25133e-07 -1.06686e-05 1.03594 0
13271 1 5.0412 -6.59119 0.00624531 0.000661306 -3.74541e-06 -9.615e-06 1.03589 0
13289 1 4.93354 -6.80136 0.00252024 -0.000435261 -1.1118e-06 -5.51128e-06 1.03766 0
13284 1 5.20669 -6.53825 0.00658785 0.000627696 -7.13243e-06 -6.78537e-06 1.03584 0
12936 1 5.12222 -6.69344 0.00386019 0.000155154 -5.45146e-06 -4.53208e-06 1.03607 0
12949 1 5.20491 -6.81233 0.0020515 -0.000609257 -5.24484e-06 -9.18197e-07 1.03755 0
13281 1 5.34314 -6.56516 0.00571684 0.000409699 -8.49495e-06 -3.21518e-06 1.03564 0
12940 1 5.49185 -6.52078 0.00601434 0.000404412 -7.75087e-06 -1.75374e-06 1.03554 0
12934 1 5.64078 -6.53509 0.00545867 0.000302942 -5.62499e-06 1.76051e-07 1.03538 0
12953 1 5.35149 -6.71411 0.00311666 -3.72172e-05 -7.43095e-06 -4.07607e-07 1.03612 0
12604 1 5.50418 -6.68527 0.0033198 1.1366e-05 -7.77572e-06 1.33504e-06 1.03572 0
12617 1 5.59018 -6.80337 0.00173129 -0.000579401 -5.95925e-06 1.56173e-06 1.03706 0
12941 1 5.71464 -6.64627 0.00362236 6.00602e-05 -4.60101e-06 1.73744e-06 1.03546 0
12288 1 5.87615 -6.62015 0.00379123 5.84522e-05 -7.60052e-07 1.53499e-06 1.03522 0
12601 1 6.07203 -6.57611 0.00410912 7.81968e-05 4.98176e-06 9.04297e-07 1.03497 0
11882 1 5.80261 -6.7994 0.00167001 -0.000587495 -3.28742e-06 1.2704e-06 1.03693 0
11544 1 5.98753 -6.71612 0.00236243 -0.000185999 4.61419e-07 1.20081e-06 1.0356 0
12612 1 6.21116 -6.61075 0.0034683 2.00387e-05 7.68149e-06 2.57828e-07 1.03492 0
11552 1 6.12171 -6.8037 0.00143419 -0.00063637 1.34763e-06 -3.29446e-07 1.03656 0
12292 1 6.37287 -6.5842 0.00360201 1.75422e-05 1.16264e-05 -6.56362e-07 1.03477 0
12295 1 6.52487 -6.5877 0.00338693 1.16414e-05 1.39205e-05 -1.57108e-06 1.03465 0
11164 1 6.29982 -6.75158 0.00179983 -0.000394977 5.14538e-06 -6.55025e-07 1.03592 0
11323 1 6.46174 -6.75571 0.00163869 -0.000433523 7.07707e-06 -1.53194e-06 1.03585 0
11887 1 6.66569 -6.56338 0.00351435 1.59734e-05 1.60331e-05 -2.61496e-06 1.0345 0
11891 1 6.78493 -6.61821 0.00279265 -1.38389e-05 1.47137e-05 -2.90658e-06 1.03449 0
10507 1 6.6226 -6.77118 0.00142935 -0.000482233 8.01159e-06 -2.24914e-06 1.03588 0
11547 1 6.93239 -6.59899 0.00289119 1.33424e-07 1.55053e-05 -3.58337e-06 1.03434 0
10519 1 6.80459 -6.78829 0.00125419 -0.000532462 8.23681e-06 -2.88828e-06 1.03591 0
11172 1 7.07607 -6.61194 0.00264767 -1.18594e-05 1.45575e-05 -3.88003e-06 1.03428 0
10189 1 6.99567 -6.77753 0.00126375 -0.00047316 8.78605e-06 -3.12328e-06 1.03566 0
10850 1 7.22798 -6.58894 0.00280166 1.02573e-06 1.43733e-05 -4.39146e-06 1.03416 0
13472 1 4.21415 -0.0505551 0.009648 -0.000141455 -0.000200546 4.25067e-05 1.03801 0
3109 1 7.18203 -6.76699 0.00126897 -0.000426669 8.79213e-06 -3.26773e-06 1.03542 0
13988 1 2.06308 -6.2288 0.02 0 8.13008e-06 8.9493e-06 1 2
13989 1 2.07257 -6.4079 0.02 0 0.000161892 0.000131549 1 2
13990 1 2.27494 -6.38721 0.02 0 0.000152425 0.000193176 1 2
13991 1 2.28498 -6.20378 0.02 0 1.07953e-05 1.90687e-05 1 2
13992 1 2.48227 -6.3754 0.02 0 9.67805e-05 0.000158363 1 2
13993 1 2.49538 -6.18987 0.02 0 6.20436e-06 1.39651e-05 1 2
13994 1 2.6865 -6.37705 0.02 0 9.43209e-05 0.000156702 1 2
13995 1 2.69877 -6.184 0.02 0 5.46244e-06 1.28762e-05 1 2
13996 1 2.88512 -6.37392 0.02 0 8.92216e-05 0.000150711 1 2
13997 1 2.90466 -6.18589 0.02 0 5.83635e-06 1.40486e-05 1 2
13998 1 3.08541 -6.37283 0.02 0 8.81415e-05 0.000158352 1 2
13999 1 3.28522 -6.36822 0.02 0 8.47332e-05 0.000150457 1 2
14000 1 3.11092 -6.18342 0.02 0 5.55897e-06 1.42426e-05 1 2
14001 1 3.31568 -6.17861 0.02 0 5.29748e-06 1.34775e-05 1 2
14002 1 3.48212 -6.39271 0.02 0 3.60847e-05 0.000189621 1 2
14003 1 3.67914 -6.36863 0.02 0 -0.00175734 0.000181504 1 2
14004 1 3.5119 -6.19761 0.02 0 -0.000100543 2.45504e-05 1 2
14005 1 3.70504 -6.16742 0.02 0 -0.00196271 0.000164329 1 2
13660 1 4.01695 -6.36034 0.0100237 0.000926341 -0.000169482 0.000115289 1.03427 0
13661 1 4.06531 -6.15419 0.0111249 0.00169708 -0.000361472 -0.000206291 1.03723 0
14006 1 3.87099 -6.37707 0.02 0 -0.00644868 8.63177e-05 1 2
14007 1 3.89964 -6.1793 0.02 0 -0.00647654 0.000500424 1 2
13650 1 4.44828 -6.36742 0.0124894 0.00266283 1.53066e-05 1.00789e-05 1.03802 0
13662 1 4.01729 -6.39539 0.0100246 0.000948608 -0.000181217 0.000104728 1.03444 0
13663 1 3.99919 -6.20525 0.02 0 -0.00470105 0.00049169 1.02974 2
13664 1 4.19924 -6.27385 0.0106144 0.00240527 -0.000242523 6.65619e-05 1.04224 0
13666 1 4.24406 -6.10319 0.0116048 0.00238392 -7.94522e-05 -8.42763e-05 1.04157 0
13665 1 4.29588 -6.38207 0.0112096 0.00297368 -9.04184e-05 2.09788e-05 1.04162 0
13667 1 4.53708 -6.09812 0.0138768 0.00294408 1.09694e-05 -1.01438e-05 1.03679 0
13668 1 4.37564 -6.21793 0.013008 0.00285602 -3.087e-05 5.52114e-07 1.03902 0
13670 1 4.4115 -6.05174 0.0138368 0.00283162 7.41485e-06 -1.27204e-05 1.03811 0
13651 1 4.58982 -6.42984 0.0114416 0.00219665 1.51683e-05 -1.2017e-05 1.03665 0
13654 1 4.71805 -6.30943 0.0119843 0.00233638 8.33998e-06 -1.67778e-05 1.03661 0
13669 1 4.56616 -6.25251 0.0130924 0.00275182 1.22888e-05 -1.05735e-05 1.03678 0
13672 1 4.82439 -6.17142 0.012509 0.00253894 6.2108e-06 -1.9013e-05 1.03681 0
13673 1 4.6886 -6.11743 0.0134023 0.0028743 9.81368e-06 -1.63434e-05 1.03664 0
13655 1 4.87039 -6.34562 0.0107855 0.00185383 2.37142e-06 -1.77367e-05 1.03666 0
13658 1 4.96268 -6.13542 0.0121459 0.00237739 4.4585e-06 -1.85838e-05 1.03684 0
13657 1 4.99688 -6.45575 0.00873368 0.00121655 -2.25419e-06 -1.39715e-05 1.03633 0
13676 1 5.07437 -6.00992 0.0124686 0.00254041 5.67716e-06 -1.78363e-05 1.03671 0
13272 1 5.13507 -6.18243 0.0111285 0.00186253 2.1461e-07 -1.54119e-05 1.03661 0
13677 1 5.0215 -6.29061 0.0106102 0.00172495 -2.341e-07 -1.61929e-05 1.03668 0
13270 1 5.16012 -6.38763 0.00892317 0.0011417 -5.01782e-06 -1.09871e-05 1.03629 0
13296 1 5.22421 -6.03875 0.0118338 0.00214624 3.04089e-06 -1.52843e-05 1.03646 0
13275 1 5.26763 -6.24618 0.0100672 0.00139663 -3.0781e-06 -1.12838e-05 1.03634 0
13273 1 5.40894 -6.20234 0.00997649 0.00129397 -2.0402e-06 -9.22826e-06 1.03615 0
13279 1 5.34362 -6.39211 0.00818652 0.000856285 -6.69293e-06 -6.70066e-06 1.03599 0
13277 1 5.50478 -6.34989 0.0081543 0.000764979 -4.84465e-06 -4.68116e-06 1.03584 0
13278 1 5.55051 -6.14722 0.00998312 0.00123367 6.6512e-07 -7.90566e-06 1.036 0
13283 1 5.75059 -6.06154 0.0100384 0.00116645 6.02347e-06 -6.4958e-06 1.03583 0
13282 1 5.66406 -6.23575 0.00883913 0.000852831 5.66592e-07 -4.73261e-06 1.03582 0
13285 1 5.67674 -6.38581 0.00724774 0.000529468 -2.39351e-06 -1.95352e-06 1.03559 0
13287 1 5.82894 -6.18599 0.00881447 0.000776521 5.44912e-06 -4.15541e-06 1.03571 0
13288 1 5.85736 -6.32739 0.00740354 0.000484793 3.52564e-06 -1.8238e-06 1.03553 0
12609 1 6.00028 -6.44832 0.00578528 0.000231634 5.44274e-06 -1.31088e-07 1.03517 0
13286 1 5.97669 -6.10983 0.00904832 0.000778296 1.03366e-05 -4.23564e-06 1.03561 0
13309 1 6.12378 -6.08815 0.00885083 0.000669647 1.393e-05 -3.93117e-06 1.03549 0
12944 1 5.82877 -6.47826 0.0057993 0.000282555 -9.72264e-08 2.17723e-07 1.03528 0
13290 1 6.01754 -6.27807 0.00748838 0.000438673 8.97974e-06 -2.18976e-06 1.03545 0
12937 1 6.17256 -6.26266 0.00727114 0.000356116 1.32841e-05 -2.39908e-06 1.03533 0
12938 1 6.29666 -6.1352 0.00808652 0.000445426 1.70373e-05 -3.57252e-06 1.03531 0
12945 1 6.17954 -6.4245 0.00568605 0.000184987 1.10053e-05 -8.68469e-07 1.03505 0
12942 1 6.35337 -6.27303 0.00680175 0.000247984 1.70691e-05 -2.81392e-06 1.03514 0
12600 1 6.33544 -6.43211 0.00532818 0.000132195 1.45336e-05 -1.506e-06 1.03489 0
12947 1 6.60836 -6.07087 0.00797898 0.000315063 2.04736e-05 -4.64801e-06 1.03506 0
12950 1 6.50922 -6.24139 0.00678601 0.000203492 1.95825e-05 -3.68091e-06 1.03504 0
12605 1 6.50232 -6.41314 0.00524361 0.000100246 1.77047e-05 -2.55574e-06 1.03478 0
12948 1 6.66994 -6.22982 0.00661407 0.000146004 2.07861e-05 -4.47877e-06 1.03492 0
12132 1 6.66823 -6.40043 0.00512125 7.01236e-05 1.9476e-05 -3.62897e-06 1.03466 0
12952 1 6.83795 -6.15264 0.00699051 0.00013074 2.07699e-05 -5.46673e-06 1.03484 0
12608 1 6.82637 -6.30571 0.00575098 6.54583e-05 2.06653e-05 -4.92967e-06 1.03469 0
12603 1 6.99347 -6.16741 0.00667837 6.79709e-05 1.99049e-05 -6.0709e-06 1.03472 0
12616 1 6.85868 -6.45383 0.0043958 3.7926e-05 1.91392e-05 -4.27472e-06 1.03443 0
12611 1 7.13407 -6.18916 0.00635795 1.97794e-05 1.86466e-05 -6.54216e-06 1.03462 0
12135 1 7.00234 -6.34318 0.00522504 2.40399e-05 1.97338e-05 -5.48465e-06 1.03451 0
12613 1 7.31488 -6.14694 0.00653548 -1.67585e-05 1.62125e-05 -7.14713e-06 1.03454 0
11894 1 7.10141 -6.4488 0.00421108 2.0879e-05 1.80795e-05 -5.2043e-06 1.03427 0
12136 1 7.24091 -6.29287 0.0054275 -1.01207e-05 1.7564e-05 -6.45418e-06 1.03444 0
12291 1 7.28045 -6.42931 0.00424974 6.91035e-06 1.65619e-05 -5.72091e-06 1.03419 0
12786 1 7.19815 -0.0328124 0.0128661 -0.000236464 -2.02377e-05 -2.29676e-06 1.03501 0
14008 1 2.03864 -5.85696 0.02 0 0 0 1 2
14009 1 2.05859 -6.0486 0.02 0 8.5998e-08 1.41949e-07 1 2
14010 1 2.26415 -6.01867 0.02 0 1.27962e-07 2.51047e-07 1 2
14011 1 2.22834 -5.82533 0.02 0 2.59799e-10 7.60671e-10 1 2
14012 1 2.42406 -5.81429 0.02 0 7.57291e-11 2.93121e-10 1 2
14013 1 2.47217 -6.00318 0.02 0 4.77365e-08 1.14621e-07 1 2
14014 1 2.67975 -5.99131 0.02 0 2.86463e-08 8.72661e-08 1 2
14015 1 2.62801 -5.80594 0.02 0 3.94686e-11 1.54466e-10 1 2
14016 1 2.84787 -5.81645 0.02 0 6.84e-11 2.30961e-10 1 2
14017 1 2.8866 -5.99936 0.02 0 3.34322e-08 1.1888e-07 1 2
14018 1 3.09084 -5.99235 0.02 0 2.40999e-08 1.01501e-07 1 2
14020 1 3.06418 -5.80089 0.02 0 2.87855e-11 9.16989e-11 1 2
14021 1 3.27718 -5.80157 0.02 0 2.52642e-11 7.29368e-11 1 2
14019 1 3.29577 -5.99012 0.02 0 2.46964e-08 1.06789e-07 1 2
14022 1 3.4983 -5.99593 0.02 0 -6.05739e-05 -5.54078e-07 1 2
14023 1 3.69456 -5.9702 0.02 0 -0.0015406 5.74226e-05 1 2
14024 1 3.4823 -5.79422 0.02 0 -4.52521e-05 -1.64161e-06 1 2
14025 1 3.68701 -5.77703 0.02 0 -0.00131571 1.07733e-05 1 2
13680 1 3.99976 -5.94724 0.02 0 -0.00665627 0.000900149 1.02858 2
13681 1 4.00037 -5.77341 0.0183438 0.000211162 -0.00662483 0.000844648 1.02664 0
14026 1 3.89167 -5.97734 0.02 0 -0.00547158 0.00049101 1 2
14027 1 3.88326 -5.77065 0.02 0 -0.00455068 0.000313138 1 2
13682 1 4.1936 -5.90419 0.0118618 0.00179493 0.000167401 -2.59954e-05 1.04183 0
13683 1 4.08867 -5.79042 0.0124899 0.00105492 0.000201258 6.24651e-05 1.03744 0
13684 1 4.34162 -5.93945 0.0132989 0.00255824 4.87122e-05 -1.96742e-05 1.03969 0
13685 1 4.32416 -5.78841 0.0130132 0.00265064 5.90439e-05 2.98923e-06 1.0404 0
13686 1 4.47881 -5.68356 0.0142106 0.0030824 1.43074e-05 -4.1886e-06 1.03687 0
13687 1 4.05513 -6.02957 0.0109876 0.000700874 0.000103356 -0.000205646 1.03602 0
13690 1 4.25761 -5.67007 0.0119582 0.00267763 3.6755e-05 5.03484e-06 1.04165 0
13688 1 4.48978 -5.84668 0.014366 0.003034 1.46196e-05 -1.00296e-05 1.03689 0
13671 1 4.77008 -5.97438 0.0136632 0.00307395 9.24172e-06 -1.75973e-05 1.03667 0
13675 1 4.92027 -5.96817 0.0131656 0.00292057 8.44332e-06 -1.88366e-05 1.03682 0
13674 1 4.61204 -5.94589 0.014191 0.00311972 9.86586e-06 -1.35131e-05 1.03644 0
13689 1 4.64905 -5.7825 0.0143206 0.00327993 1.16089e-05 -1.29785e-05 1.0362 0
13692 1 4.82093 -5.81628 0.0138823 0.00327121 1.11884e-05 -1.69046e-05 1.0366 0
13694 1 4.74389 -5.65735 0.0141802 0.00336592 1.24863e-05 -1.23525e-05 1.03624 0
13693 1 4.92615 -5.68368 0.0138341 0.00332592 1.27591e-05 -1.62029e-05 1.03664 0
13291 1 5.36237 -6.03821 0.0113977 0.00187497 2.39672e-06 -1.27394e-05 1.03624 0
13679 1 5.16549 -5.85887 0.0128914 0.00273273 8.21434e-06 -1.70948e-05 1.03653 0
13678 1 5.00895 -5.82993 0.0133607 0.00306493 1.03902e-05 -1.8172e-05 1.03672 0
13696 1 5.0901 -5.67649 0.0135612 0.00315556 1.24214e-05 -1.67975e-05 1.0366 0
13697 1 5.24727 -5.69609 0.0132585 0.00286972 1.0805e-05 -1.57554e-05 1.03638 0
13294 1 5.3201 -5.85973 0.012495 0.0024265 6.99815e-06 -1.48945e-05 1.03629 0
13295 1 5.40363 -5.66656 0.0130481 0.00263149 1.08005e-05 -1.37001e-05 1.03617 0
13298 1 5.64185 -5.97346 0.0109647 0.00155818 5.93216e-06 -8.85254e-06 1.03593 0
13292 1 5.49543 -5.98199 0.0113431 0.00179238 4.25087e-06 -1.10728e-05 1.03607 0
13293 1 5.46914 -5.81676 0.012305 0.00223577 7.8745e-06 -1.2648e-05 1.0361 0
13299 1 5.62213 -5.79918 0.0119989 0.00199368 9.07213e-06 -1.03626e-05 1.03595 0
13314 1 5.55917 -5.63429 0.0128428 0.00240099 1.15173e-05 -1.1419e-05 1.03602 0
13297 1 5.77153 -5.84736 0.0113627 0.00163682 9.95685e-06 -8.10171e-06 1.03582 0
13319 1 5.72138 -5.65754 0.0124095 0.00207487 1.21043e-05 -9.2307e-06 1.03587 0
13302 1 5.88979 -5.97463 0.0102681 0.00118006 1.01791e-05 -6.05585e-06 1.03571 0
13300 1 5.87113 -5.63578 0.0121869 0.00185049 1.36512e-05 -7.48371e-06 1.03574 0
13301 1 5.91689 -5.78947 0.0113265 0.00151654 1.27135e-05 -6.78547e-06 1.03569 0
13303 1 6.04276 -5.68339 0.0116024 0.00149973 1.50466e-05 -5.96066e-06 1.03559 0
13305 1 6.03181 -5.90266 0.0103805 0.00113689 1.3541e-05 -5.44198e-06 1.03558 0
12954 1 6.16832 -5.87866 0.0102158 0.00100197 1.58133e-05 -4.84163e-06 1.03546 0
13304 1 6.19098 -5.70841 0.0111661 0.00124159 1.64566e-05 -5.10059e-06 1.03545 0
12935 1 6.26929 -5.98627 0.00926821 0.00070616 1.705e-05 -4.25911e-06 1.03536 0
13306 1 6.32732 -5.78127 0.0104772 0.000957696 1.76583e-05 -4.63299e-06 1.03532 0
13311 1 6.41483 -5.91339 0.00946815 0.000675839 1.86679e-05 -4.44344e-06 1.03524 0
13310 1 6.47848 -5.69712 0.01069 0.000880983 1.81598e-05 -4.68726e-06 1.0352 0
12939 1 6.45722 -6.06858 0.00827564 0.000421064 1.93867e-05 -4.15372e-06 1.03519 0
12958 1 6.54908 -5.85132 0.00962802 0.000627631 1.91384e-05 -4.73595e-06 1.03513 0
12946 1 6.77067 -6.02541 0.00805305 0.000263196 2.03614e-05 -5.34738e-06 1.03494 0
12957 1 6.68198 -5.73171 0.0101616 0.000623372 1.83021e-05 -5.11632e-06 1.03503 0
12943 1 6.69047 -5.90032 0.00906466 0.000447785 1.95496e-05 -5.08654e-06 1.03501 0
12961 1 6.83851 -5.70376 0.0101179 0.000494661 1.72729e-05 -5.7063e-06 1.03492 0
12962 1 6.86853 -5.86236 0.00906354 0.000348896 1.85114e-05 -5.81482e-06 1.03488 0
12965 1 6.99611 -5.69168 0.0100135 0.000362747 1.58283e-05 -6.39251e-06 1.03481 0
12966 1 7.05571 -5.83122 0.00905645 0.000240424 1.65875e-05 -6.63408e-06 1.03475 0
12974 1 6.95597 -5.99892 0.00799341 0.00018454 1.91316e-05 -6.12283e-06 1.0348 0
12951 1 7.11281 -5.98317 0.00793327 0.00011798 1.74886e-05 -6.74839e-06 1.0347 0
12969 1 7.21534 -5.7923 0.00917298 0.000154841 1.43889e-05 -7.3342e-06 1.03466 0
12606 1 7.25071 -6.00962 0.00761549 4.37776e-05 1.60305e-05 -7.2532e-06 1.03462 0
13475 1 4.80962 -0.0860582 0.0130688 -3.02619e-05 -3.59189e-05 1.95599e-05 1.0334 0
13469 1 5.10206 -0.0430013 0.0129623 -0.000232864 -1.64256e-05 1.89808e-05 1.03405 0
12788 1 7.04648 -0.0653868 0.0129649 -0.000273811 -2.09166e-05 -1.94723e-06 1.03493 0
14028 1 2.05006 -5.64953 0.02 0 0 0 1 2
14030 1 2.05136 -5.44144 0.02 0 0 0 1 2
14032 1 2.04191 -5.23262 0.02 0 0 0 1 2
14029 1 2.24448 -5.62334 0.02 0 0 0 1 2
14031 1 2.24464 -5.41999 0.02 0 0 0 1 2
14035 1 2.42118 -5.21795 0.02 0 0 0 1 2
14033 1 2.44364 -5.61653 0.02 0 0 0 1 2
14034 1 2.43984 -5.41725 0.02 0 0 0 1 2
14036 1 2.64476 -5.61413 0.02 0 0 0 1 2