ITEM: TIMESTEP
13000
ITEM: NUMBER OF ATOMS
10607
ITEM: BOX BOUNDS ff ff pp
0.0000000000000000e+00 2.2000000000000000e+01
-1.0000000000000000e+01 1.0000000000000000e+01
-2.0000000000000000e-02 2.0000000000000000e-02
ITEM: ATOMS id type x y vx vy fx fy c_den c_phase
1501 2 2 -10 0 0 0 0 1 5
1551 2 2 -9.8 0 0 0 0 1 5
1601 2 2 -9.6 0 0 0 0 1 5
1502 2 2.2 -10 0 0 0 0 1 5
1503 2 2.4 -10 0 0 0 0 1 5
1552 2 2.2 -9.8 0 0 0 0 1 5
1553 2 2.4 -9.8 0 0 0 0 1 5
1602 2 2.2 -9.6 0 0 0 0 1 5
1603 2 2.4 -9.6 0 0 0 0 1 5
1504 2 2.6 -10 0 0 0 0 1 5
1505 2 2.8 -10 0 0 0 0 1 5
1554 2 2.6 -9.8 0 0 0 0 1 5
1555 2 2.8 -9.8 0 0 0 0 1 5
1604 2 2.6 -9.6 0 0 0 0 1 5
1605 2 2.8 -9.6 0 0 0 0 1 5
1506 2 3 -10 0 0 0 0 1 5
1507 2 3.2 -10 0 0 0 0 1 5
1556 2 3 -9.8 0 0 0 0 1 5
1557 2 3.2 -9.8 0 0 0 0 1 5
1606 2 3 -9.6 0 0 0 0 1 5
1607 2 3.2 -9.6 0 0 0 0 1 5
1508 2 3.4 -10 0 0 0 0 1 5
1509 2 3.6 -10 0 0 0 0 1 5
1558 2 3.4 -9.8 0 0 0 0 1 5
1559 2 3.6 -9.8 0 0 0 0 1 5
1608 2 3.4 -9.6 0 0 0 0 1 5
1609 2 3.6 -9.6 0 0 0 0 1 5
1510 2 3.8 -10 0 0 0 0 1 5
1560 2 3.8 -9.8 0 0 0 0 1 5
1610 2 3.8 -9.6 0 0 0 0 1 5
1511 2 4 -10 0 0 0 0 1 5
1561 2 4 -9.8 0 0 0 0 1 5
1611 2 4 -9.6 0 0 0 0 1 5
1512 2 4.2 -10 0 0 0 0 1 5
1562 2 4.2 -9.8 0 0 0 0 1 5
1612 2 4.2 -9.6 0 0 0 0 1 5
1513 2 4.4 -10 0 0 0 0 1 5
1514 2 4.6 -10 0 0 0 0 1 5
1563 2 4.4 -9.8 0 0 0 0 1 5
1564 2 4.6 -9.8 0 0 0 0 1 5
1613 2 4.4 -9.6 0 0 0 0 1 5
1614 2 4.6 -9.6 0 0 0 0 1 5
1515 2 4.8 -10 0 0 0 0 1 5
1516 2 5 -10 0 0 0 0 1 5
1565 2 4.8 -9.8 0 0 0 0 1 5
1566 2 5 -9.8 0 0 0 0 1 5
1615 2 4.8 -9.6 0 0 0 0 1 5
1616 2 5 -9.6 0 0 0 0 1 5
1517 2 5.2 -10 0 0 0 0 1 5
1518 2 5.4 -10 0 0 0 0 1 5
1567 2 5.2 -9.8 0 0 0 0 1 5
1568 2 5.4 -9.8 0 0 0 0 1 5
1617 2 5.2 -9.6 0 0 0 0 1 5
1618 2 5.4 -9.6 0 0 0 0 1 5
1519 2 5.6 -10 0 0 0 0 1 5
1520 2 5.8 -10 0 0 0 0 1 5
1569 2 5.6 -9.8 0 0 0 0 1 5
1570 2 5.8 -9.8 0 0 0 0 1 5
1619 2 5.6 -9.6 0 0 0 0 1 5
1620 2 5.8 -9.6 0 0 0 0 1 5
1521 2 6 -10 0 0 0 0 1 5
1522 2 6.2 -10 0 0 0 0 1 5
1571 2 6 -9.8 0 0 0 0 1 5
1572 2 6.2 -9.8 0 0 0 0 1 5
1621 2 6 -9.6 0 0 0 0 1 5
1622 2 6.2 -9.6 0 0 0 0 1 5
1523 2 6.4 -10 0 0 0 0 1 5
1524 2 6.6 -10 0 0 0 0 1 5
1573 2 6.4 -9.8 0 0 0 0 1 5
1574 2 6.6 -9.8 0 0 0 0 1 5
1623 2 6.4 -9.6 0 0 0 0 1 5
1624 2 6.6 -9.6 0 0 0 0 1 5
1525 2 6.8 -10 0 0 0 0 1 5
1526 2 7 -10 0 0 0 0 1 5
1575 2 6.8 -9.8 0 0 0 0 1 5
1576 2 7 -9.8 0 0 0 0 1 5
1625 2 6.8 -9.6 0 0 0 0 1 5
1626 2 7 -9.6 0 0 0 0 1 5
1527 2 7.2 -10 0 0 0 0 1 5
1577 2 7.2 -9.8 0 0 0 0 1 5
1627 2 7.2 -9.6 0 0 0 0 1 5
1528 2 7.4 -10 0 0 0 0 1 5
1529 2 7.6 -10 0 0 0 0 1 5
1578 2 7.4 -9.8 0 0 0 0 1 5
1579 2 7.6 -9.8 0 0 0 0 1 5
1628 2 7.4 -9.6 0 0 0 0 1 5
1629 2 7.6 -9.6 0 0 0 0 1 5
1530 2 7.8 -10 0 0 0 0 1 5
1531 2 8 -10 0 0 0 0 1 5
1580 2 7.8 -9.8 0 0 0 0 1 5
1581 2 8 -9.8 0 0 0 0 1 5
1630 2 7.8 -9.6 0 0 0 0 1 5
1631 2 8 -9.6 0 0 0 0 1 5
1532 2 8.2 -10 0 0 0 0 1 5
1533 2 8.4 -10 0 0 0 0 1 5
1582 2 8.2 -9.8 0 0 0 0 1 5
1583 2 8.4 -9.8 0 0 0 0 1 5
1632 2 8.2 -9.6 0 0 0 0 1 5
1633 2 8.4 -9.6 0 0 0 0 1 5
1534 2 8.6 -10 0 0 0 0 1 5
1535 2 8.8 -10 0 0 0 0 1 5
1584 2 8.6 -9.8 0 0 0 0 1 5
1585 2 8.8 -9.8 0 0 0 0 1 5
1634 2 8.6 -9.6 0 0 0 0 1 5
1635 2 8.8 -9.6 0 0 0 0 1 5
1536 2 9 -10 0 0 0 0 1 5
1537 2 9.2 -10 0 0 0 0 1 5
1586 2 9 -9.8 0 0 0 0 1 5
1587 2 9.2 -9.8 0 0 0 0 1 5
1636 2 9 -9.6 0 0 0 0 1 5
1637 2 9.2 -9.6 0 0 0 0 1 5
1538 2 9.4 -10 0 0 0 0 1 5
1539 2 9.6 -10 0 0 0 0 1 5
1588 2 9.4 -9.8 0 0 0 0 1 5
1589 2 9.6 -9.8 0 0 0 0 1 5
1638 2 9.4 -9.6 0 0 0 0 1 5
1639 2 9.6 -9.6 0 0 0 0 1 5
1540 2 9.8 -10 0 0 0 0 1 5
1590 2 9.8 -9.8 0 0 0 0 1 5
1640 2 9.8 -9.6 0 0 0 0 1 5
1541 2 10 -10 0 0 0 0 1 5
1591 2 10 -9.8 0 0 0 0 1 5
1641 2 10 -9.6 0 0 0 0 1 5
1542 2 10.2 -10 0 0 0 0 1 5
1592 2 10.2 -9.8 0 0 0 0 1 5
1642 2 10.2 -9.6 0 0 0 0 1 5
1543 2 10.4 -10 0 0 0 0 1 5
1593 2 10.4 -9.8 0 0 0 0 1 5
1643 2 10.4 -9.6 0 0 0 0 1 5
1544 2 10.6 -10 0 0 0 0 1 5
1594 2 10.6 -9.8 0 0 0 0 1 5
1644 2 10.6 -9.6 0 0 0 0 1 5
1545 2 10.8 -10 0 0 0 0 1 5
1595 2 10.8 -9.8 0 0 0 0 1 5
1645 2 10.8 -9.6 0 0 0 0 1 5
1651 2 2 -9.4 0 0 0 0 1 5
1701 2 2 -9.2 0 0 0 0 1 5
1652 2 2.2 -9.4 0 0 0 0 1 5
1653 2 2.4 -9.4 0 0 0 0 1 5
1702 2 2.2 -9.2 0 0 0 0 1 5
1703 2 2.4 -9.2 0 0 0 0 1 5
1654 2 2.6 -9.4 0 0 0 0 1 5
1655 2 2.8 -9.4 0 0 0 0 1 5
1704 2 2.6 -9.2 0 0 0 0 1 5
1705 2 2.8 -9.2 0 0 0 0 1 5
1656 2 3 -9.4 0 0 0 0 1 5
1657 2 3.2 -9.4 0 0 0 0 1 5
1706 2 3 -9.2 0 0 0 0 1 5
1707 2 3.2 -9.2 0 0 0 0 1 5
1658 2 3.4 -9.4 0 0 0 0 1 5
1659 2 3.6 -9.4 0 0 0 0 1 5
1708 2 3.4 -9.2 0 0 0 0 1 5
1709 2 3.6 -9.2 0 0 0 0 1 5
1660 2 3.8 -9.4 0 0 0 0 1 5
1710 2 3.8 -9.2 0 0 0 0 1 5
1661 2 4 -9.4 0 0 0 0 1 5
1711 2 4 -9.2 0 0 0 0 1 5
1662 2 4.2 -9.4 0 0 0 0 1 5
1712 2 4.2 -9.2 0 0 0 0 1 5
1663 2 4.4 -9.4 0 0 0 0 1 5
1664 2 4.6 -9.4 0 0 0 0 1 5
1713 2 4.4 -9.2 0 0 0 0 1 5
1714 2 4.6 -9.2 0 0 0 0 1 5
1665 2 4.8 -9.4 0 0 0 0 1 5
1666 2 5 -9.4 0 0 0 0 1 5
1715 2 4.8 -9.2 0 0 0 0 1 5
1716 2 5 -9.2 0 0 0 0 1 5
1667 2 5.2 -9.4 0 0 0 0 1 5
1668 2 5.4 -9.4 0 0 0 0 1 5
1717 2 5.2 -9.2 0 0 0 0 1 5
1718 2 5.4 -9.2 0 0 0 0 1 5
1669 2 5.6 -9.4 0 0 0 0 1 5
1670 2 5.8 -9.4 0 0 0 0 1 5
1719 2 5.6 -9.2 0 0 0 0 1 5
1720 2 5.8 -9.2 0 0 0 0 1 5
1671 2 6 -9.4 0 0 0 0 1 5
1672 2 6.2 -9.4 0 0 0 0 1 5
1721 2 6 -9.2 0 0 0 0 1 5
1722 2 6.2 -9.2 0 0 0 0 1 5
1673 2 6.4 -9.4 0 0 0 0 1 5
1674 2 6.6 -9.4 0 0 0 0 1 5
1723 2 6.4 -9.2 0 0 0 0 1 5
1724 2 6.6 -9.2 0 0 0 0 1 5
1675 2 6.8 -9.4 0 0 0 0 1 5
1676 2 7 -9.4 0 0 0 0 1 5
1725 2 6.8 -9.2 0 0 0 0 1 5
1726 2 7 -9.2 0 0 0 0 1 5
1677 2 7.2 -9.4 0 0 0 0 1 5
1727 2 7.2 -9.2 0 0 0 0 1 5
1678 2 7.4 -9.4 0 0 0 0 1 5
1679 2 7.6 -9.4 0 0 0 0 1 5
1728 2 7.4 -9.2 0 0 0 0 1 5
1729 2 7.6 -9.2 0 0 0 0 1 5
1680 2 7.8 -9.4 0 0 0 0 1 5
1681 2 8 -9.4 0 0 0 0 1 5
1730 2 7.8 -9.2 0 0 0 0 1 5
1731 2 8 -9.2 0 0 0 0 1 5
1682 2 8.2 -9.4 0 0 0 0 1 5
1683 2 8.4 -9.4 0 0 0 0 1 5
1732 2 8.2 -9.2 0 0 0 0 1 5
1733 2 8.4 -9.2 0 0 0 0 1 5
1684 2 8.6 -9.4 0 0 0 0 1 5
1685 2 8.8 -9.4 0 0 0 0 1 5
1734 2 8.6 -9.2 0 0 0 0 1 5
1735 2 8.8 -9.2 0 0 0 0 1 5
1686 2 9 -9.4 0 0 0 0 1 5
1687 2 9.2 -9.4 0 0 0 0 1 5
1736 2 9 -9.2 0 0 0 0 1 5
1737 2 9.2 -9.2 0 0 0 0 1 5
1688 2 9.4 -9.4 0 0 0 0 1 5
1689 2 9.6 -9.4 0 0 0 0 1 5
1738 2 9.4 -9.2 0 0 0 0 1 5
1739 2 9.6 -9.2 0 0 0 0 1 5
1690 2 9.8 -9.4 0 0 0 0 1 5
1740 2 9.8 -9.2 0 0 0 0 1 5
1691 2 10 -9.4 0 0 0 0 1 5
1741 2 10 -9.2 0 0 0 0 1 5
1692 2 10.2 -9.4 0 0 0 0 1 5
1742 2 10.2 -9.2 0 0 0 0 1 5
1693 2 10.4 -9.4 0 0 0 0 1 5
1743 2 10.4 -9.2 0 0 0 0 1 5
1694 2 10.6 -9.4 0 0 0 0 1 5
1744 2 10.6 -9.2 0 0 0 0 1 5
1695 2 10.8 -9.4 0 0 0 0 1 5
1745 2 10.8 -9.2 0 0 0 0 1 5
1751 2 2 -9 0 0 0 0 1 5
1801 2 2 -8.8 0 0 0 0 1 5
1752 2 2.2 -9 0 0 0 0 1 5
1753 2 2.4 -9 0 0 0 0 1 5
1802 2 2.2 -8.8 0 0 0 0 1 5
1803 2 2.4 -8.8 0 0 0 0 1 5
1754 2 2.6 -9 0 0 0 0 1 5
1755 2 2.8 -9 0 0 0 0 1 5
1804 2 2.6 -8.8 0 0 0 0 1 5
1805 2 2.8 -8.8 0 0 0 0 1 5
1756 2 3 -9 0 0 0 0 1 5
1757 2 3.2 -9 0 0 0 0 1 5
1806 2 3 -8.8 0 0 0 0 1 5
1807 2 3.2 -8.8 0 0 0 0 1 5
1758 2 3.4 -9 0 0 0 0 1 5
1759 2 3.6 -9 0 0 0 0 1 5
1808 2 3.4 -8.8 0 0 0 0 1 5
1809 2 3.6 -8.8 0 0 0 0 1 5
1760 2 3.8 -9 0 0 0 0 1 5
1810 2 3.8 -8.8 0 0 0 0 1 5
1761 2 4 -9 0 0 0 0 1 5
1811 2 4 -8.8 0 0 0 0 1 5
1762 2 4.2 -9 0 0 0 0 1 5
1812 2 4.2 -8.8 0 0 0 0 1 5
1763 2 4.4 -9 0 0 0 0 1 5
1764 2 4.6 -9 0 0 0 0 1 5
1813 2 4.4 -8.8 0 0 0 0 1 5
1814 2 4.6 -8.8 0 0 0 0 1 5
1765 2 4.8 -9 0 0 0 0 1 5
1766 2 5 -9 0 0 0 0 1 5
1815 2 4.8 -8.8 0 0 0 0 1 5
1816 2 5 -8.8 0 0 0 0 1 5
1767 2 5.2 -9 0 0 0 0 1 5
1768 2 5.4 -9 0 0 0 0 1 5
1817 2 5.2 -8.8 0 0 0 0 1 5
1818 2 5.4 -8.8 0 0 0 0 1 5
1769 2 5.6 -9 0 0 0 0 1 5
1770 2 5.8 -9 0 0 0 0 1 5
1819 2 5.6 -8.8 0 0 0 0 1 5
1820 2 5.8 -8.8 0 0 0 0 1 5
1771 2 6 -9 0 0 0 0 1 5
1772 2 6.2 -9 0 0 0 0 1 5
1821 2 6 -8.8 0 0 0 0 1 5
1822 2 6.2 -8.8 0 0 0 0 1 5
1773 2 6.4 -9 0 0 0 0 1 5
1774 2 6.6 -9 0 0 0 0 1 5
1823 2 6.4 -8.8 0 0 0 0 1 5
1824 2 6.6 -8.8 0 0 0 0 1 5
1775 2 6.8 -9 0 0 0 0 1 5
1776 2 7 -9 0 0 0 0 1 5
1825 2 6.8 -8.8 0 0 0 0 1 5
1826 2 7 -8.8 0 0 0 0 1 5
1777 2 7.2 -9 0 0 0 0 1 5
1827 2 7.2 -8.8 0 0 0 0 1 5
1778 2 7.4 -9 0 0 0 0 1 5
1779 2 7.6 -9 0 0 0 0 1 5
1828 2 7.4 -8.8 0 0 0 0 1 5
1829 2 7.6 -8.8 0 0 0 0 1 5
1780 2 7.8 -9 0 0 0 0 1 5
1781 2 8 -9 0 0 0 0 1 5
1830 2 7.8 -8.8 0 0 0 0 1 5
1831 2 8 -8.8 0 0 0 0 1 5
1782 2 8.2 -9 0 0 0 0 1 5
1783 2 8.4 -9 0 0 0 0 1 5
1832 2 8.2 -8.8 0 0 0 0 1 5
1833 2 8.4 -8.8 0 0 0 0 1 5
1784 2 8.6 -9 0 0 0 0 1 5
1785 2 8.8 -9 0 0 0 0 1 5
1834 2 8.6 -8.8 0 0 0 0 1 5
1835 2 8.8 -8.8 0 0 0 0 1 5
1786 2 9 -9 0 0 0 0 1 5
1787 2 9.2 -9 0 0 0 0 1 5
1836 2 9 -8.8 0 0 0 0 1 5
1837 2 9.2 -8.8 0 0 0 0 1 5
1788 2 9.4 -9 0 0 0 0 1 5
1789 2 9.6 -9 0 0 0 0 1 5
1838 2 9.4 -8.8 0 0 0 0 1 5
1839 2 9.6 -8.8 0 0 0 0 1 5
1790 2 9.8 -9 0 0 0 0 1 5
1840 2 9.8 -8.8 0 0 0 0 1 5
1791 2 10 -9 0 0 0 0 1 5
1841 2 10 -8.8 0 0 0 0 1 5
1792 2 10.2 -9 0 0 0 0 1 5
1842 2 10.2 -8.8 0 0 0 0 1 5
1793 2 10.4 -9 0 0 0 0 1 5
1843 2 10.4 -8.8 0 0 0 0 1 5
1794 2 10.6 -9 0 0 0 0 1 5
1844 2 10.6 -8.8 0 0 0 0 1 5
1795 2 10.8 -9 0 0 0 0 1 5
1845 2 10.8 -8.8 0 0 0 0 1 5
1851 2 2 -8.6 0 0 0 0 1 5
1901 2 2 -8.4 0 0 0 0 1 5
1852 2 2.2 -8.6 0 0 0 0 1 5
1853 2 2.4 -8.6 0 0 0 0 1 5
1902 2 2.2 -8.4 0 0 0 0 1 5
1903 2 2.4 -8.4 0 0 0 0 1 5
1854 2 2.6 -8.6 0 0 0 0 1 5
1855 2 2.8 -8.6 0 0 0 0 1 5
1904 2 2.6 -8.4 0 0 0 0 1 5
1905 2 2.8 -8.4 0 0 0 0 1 5
1856 2 3 -8.6 0 0 0 0 1 5
1857 2 3.2 -8.6 0 0 0 0 1 5
1906 2 3 -8.4 0 0 0 0 1 5
1907 2 3.2 -8.4 0 0 0 0 1 5
1858 2 3.4 -8.6 0 0 0 0 1 5
1859 2 3.6 -8.6 0 0 0 0 1 5
1908 2 3.4 -8.4 0 0 0 0 1 5
1909 2 3.6 -8.4 0 0 0 0 1 5
1860 2 3.8 -8.6 0 0 0 0 1 5
1910 2 3.8 -8.4 0 0 0 0 1 5
1861 2 4 -8.6 0 0 0 0 1 5
1911 2 4 -8.4 0 0 0 0 1 5
1862 2 4.2 -8.6 0 0 0 0 1 5
1912 2 4.2 -8.4 0 0 0 0 1 5
1863 2 4.4 -8.6 0 0 0 0 1 5
1864 2 4.6 -8.6 0 0 0 0 1 5
1913 2 4.4 -8.4 0 0 0 0 1 5
1914 2 4.6 -8.4 0 0 0 0 1 5
1865 2 4.8 -8.6 0 0 0 0 1 5
1866 2 5 -8.6 0 0 0 0 1 5
1915 2 4.8 -8.4 0 0 0 0 1 5
1916 2 5 -8.4 0 0 0 0 1 5
1867 2 5.2 -8.6 0 0 0 0 1 5
1868 2 5.4 -8.6 0 0 0 0 1 5
1917 2 5.2 -8.4 0 0 0 0 1 5
1918 2 5.4 -8.4 0 0 0 0 1 5
1869 2 5.6 -8.6 0 0 0 0 1 5
1870 2 5.8 -8.6 0 0 0 0 1 5
1919 2 5.6 -8.4 0 0 0 0 1 5
1920 2 5.8 -8.4 0 0 0 0 1 5
1871 2 6 -8.6 0 0 0 0 1 5
1872 2 6.2 -8.6 0 0 0 0 1 5
1921 2 6 -8.4 0 0 0 0 1 5
1922 2 6.2 -8.4 0 0 0 0 1 5
1873 2 6.4 -8.6 0 0 0 0 1 5
1874 2 6.6 -8.6 0 0 0 0 1 5
1923 2 6.4 -8.4 0 0 0 0 1 5
1924 2 6.6 -8.4 0 0 0 0 1 5
1875 2 6.8 -8.6 0 0 0 0 1 5
1876 2 7 -8.6 0 0 0 0 1 5
1925 2 6.8 -8.4 0 0 0 0 1 5
1926 2 7 -8.4 0 0 0 0 1 5
1877 2 7.2 -8.6 0 0 0 0 1 5
1927 2 7.2 -8.4 0 0 0 0 1 5
1878 2 7.4 -8.6 0 0 0 0 1 5
1879 2 7.6 -8.6 0 0 0 0 1 5
1928 2 7.4 -8.4 0 0 0 0 1 5
1929 2 7.6 -8.4 0 0 0 0 1 5
1880 2 7.8 -8.6 0 0 0 0 1 5
1881 2 8 -8.6 0 0 0 0 1 5
1930 2 7.8 -8.4 0 0 0 0 1 5
1931 2 8 -8.4 0 0 0 0 1 5
1882 2 8.2 -8.6 0 0 0 0 1 5
1883 2 8.4 -8.6 0 0 0 0 1 5
1932 2 8.2 -8.4 0 0 0 0 1 5
1933 2 8.4 -8.4 0 0 0 0 1 5
1884 2 8.6 -8.6 0 0 0 0 1 5
1885 2 8.8 -8.6 0 0 0 0 1 5
1934 2 8.6 -8.4 0 0 0 0 1 5
1935 2 8.8 -8.4 0 0 0 0 1 5
1886 2 9 -8.6 0 0 0 0 1 5
1887 2 9.2 -8.6 0 0 0 0 1 5
1936 2 9 -8.4 0 0 0 0 1 5
1937 2 9.2 -8.4 0 0 0 0 1 5
1888 2 9.4 -8.6 0 0 0 0 1 5
1889 2 9.6 -8.6 0 0 0 0 1 5
1938 2 9.4 -8.4 0 0 0 0 1 5
1939 2 9.6 -8.4 0 0 0 0 1 5
1890 2 9.8 -8.6 0 0 0 0 1 5
1940 2 9.8 -8.4 0 0 0 0 1 5
1891 2 10 -8.6 0 0 0 0 1 5
1941 2 10 -8.4 0 0 0 0 1 5
1892 2 10.2 -8.6 0 0 0 0 1 5
1942 2 10.2 -8.4 0 0 0 0 1 5
1893 2 10.4 -8.6 0 0 0 0 1 5
1943 2 10.4 -8.4 0 0 0 0 1 5
1894 2 10.6 -8.6 0 0 0 0 1 5
1944 2 10.6 -8.4 0 0 0 0 1 5
1895 2 10.8 -8.6 0 0 0 0 1 5
1945 2 10.8 -8.4 0 0 0 0 1 5
1951 2 2 -8.2 0 0 0 0 1 5
2001 2 2 -8 0 0 0 0 1 5
1952 2 2.2 -8.2 0 0 0 0 1 5
1953 2 2.4 -8.2 0 0 0 0 1 5
2002 2 2.2 -8 0 0 0 0 1 5
2003 2 2.4 -8 0 0 0 0 1 5
1954 2 2.6 -8.2 0 0 0 0 1 5
1955 2 2.8 -8.2 0 0 0 0 1 5
2004 2 2.6 -8 0 0 0 0 1 5
2005 2 2.8 -8 0 0 0 0 1 5
1956 2 3 -8.2 0 0 0 0 1 5
1957 2 3.2 -8.2 0 0 0 0 1 5
2006 2 3 -8 0 0 0 0 1 5
2007 2 3.2 -8 0 0 0 0 1 5
1958 2 3.4 -8.2 0 0 0 0 1 5
1959 2 3.6 -8.2 0 0 0 0 1 5
2008 2 3.4 -8 0 0 0 0 1 5
2009 2 3.6 -8 0 0 0 0 1 5
1960 2 3.8 -8.2 0 0 0 0 1 5
2010 2 3.8 -8 0 0 0 0 1 5
1961 2 4 -8.2 0 0 0 0 1 5
2011 2 4 -8 0 0 0 0 1 5
1962 2 4.2 -8.2 0 0 0 0 1 5
2012 2 4.2 -8 0 0 0 0 1 5
1963 2 4.4 -8.2 0 0 0 0 1 5
1964 2 4.6 -8.2 0 0 0 0 1 5
2013 2 4.4 -8 0 0 0 0 1 5
2014 2 4.6 -8 0 0 0 0 1 5
1965 2 4.8 -8.2 0 0 0 0 1 5
1966 2 5 -8.2 0 0 0 0 1 5
2015 2 4.8 -8 0 0 0 0 1 5
2016 2 5 -8 0 0 0 0 1 5
1967 2 5.2 -8.2 0 0 0 0 1 5
1968 2 5.4 -8.2 0 0 0 0 1 5
2017 2 5.2 -8 0 0 0 0 1 5
2018 2 5.4 -8 0 0 0 0 1 5
1969 2 5.6 -8.2 0 0 0 0 1 5
1970 2 5.8 -8.2 0 0 0 0 1 5
2019 2 5.6 -8 0 0 0 0 1 5
2020 2 5.8 -8 0 0 0 0 1 5
1971 2 6 -8.2 0 0 0 0 1 5
1972 2 6.2 -8.2 0 0 0 0 1 5
2021 2 6 -8 0 0 0 0 1 5
2022 2 6.2 -8 0 0 0 0 1 5
1973 2 6.4 -8.2 0 0 0 0 1 5
1974 2 6.6 -8.2 0 0 0 0 1 5
2023 2 6.4 -8 0 0 0 0 1 5
2024 2 6.6 -8 0 0 0 0 1 5
1975 2 6.8 -8.2 0 0 0 0 1 5
1976 2 7 -8.2 0 0 0 0 1 5
2025 2 6.8 -8 0 0 0 0 1 5
2026 2 7 -8 0 0 0 0 1 5
1977 2 7.2 -8.2 0 0 0 0 1 5
2027 2 7.2 -8 0 0 0 0 1 5
1978 2 7.4 -8.2 0 0 0 0 1 5
1979 2 7.6 -8.2 0 0 0 0 1 5
2028 2 7.4 -8 0 0 0 0 1 5
2029 2 7.6 -8 0 0 0 0 1 5
1980 2 7.8 -8.2 0 0 0 0 1 5
1981 2 8 -8.2 0 0 0 0 1 5
2030 2 7.8 -8 0 0 0 0 1 5
2031 2 8 -8 0 0 0 0 1 5
1982 2 8.2 -8.2 0 0 0 0 1 5
1983 2 8.4 -8.2 0 0 0 0 1 5
2032 2 8.2 -8 0 0 0 0 1 5
2033 2 8.4 -8 0 0 0 0 1 5
1984 2 8.6 -8.2 0 0 0 0 1 5
1985 2 8.8 -8.2 0 0 0 0 1 5
2034 2 8.6 -8 0 0 0 0 1 5
2035 2 8.8 -8 0 0 0 0 1 5
1986 2 9 -8.2 0 0 0 0 1 5
1987 2 9.2 -8.2 0 0 0 0 1 5
2036 2 9 -8 0 0 0 0 1 5
2037 2 9.2 -8 0 0 0 0 1 5
1988 2 9.4 -8.2 0 0 0 0 1 5
1989 2 9.6 -8.2 0 0 0 0 1 5
2038 2 9.4 -8 0 0 0 0 1 5
2039 2 9.6 -8 0 0 0 0 1 5
1990 2 9.8 -8.2 0 0 0 0 1 5
2040 2 9.8 -8 0 0 0 0 1 5
1991 2 10 -8.2 0 0 0 0 1 5
2041 2 10 -8 0 0 0 0 1 5
1992 2 10.2 -8.2 0 0 0 0 1 5
2042 2 10.2 -8 0 0 0 0 1 5
1993 2 10.4 -8.2 0 0 0 0 1 5
2043 2 10.4 -8 0 0 0 0 1 5
1994 2 10.6 -8.2 0 0 0 0 1 5
2044 2 10.6 -8 0 0 0 0 1 5
1995 2 10.8 -8.2 0 0 0 0 1 5
2045 2 10.8 -8 0 0 0 0 1 5
2051 2 2 -7.8 0 0 0 0 1 5
2101 2 2 -7.6 0 0 0 0 1 5
2052 2 2.2 -7.8 0 0 0 0 1 5
2053 2 2.4 -7.8 0 0 0 0 1 5
2102 2 2.2 -7.6 0 0 0 0 1 5
2103 2 2.4 -7.6 0 0 0 0 1 5
2054 2 2.6 -7.8 0 0 0 0 1 5
2055 2 2.8 -7.8 0 0 0 0 1 5
2104 2 2.6 -7.6 0 0 0 0 1 5
2105 2 2.8 -7.6 0 0 0 0 1 5
2056 2 3 -7.8 0 0 0 0 1 5
2057 2 3.2 -7.8 0 0 0 0 1 5
2106 2 3 -7.6 0 0 0 0 1 5
2107 2 3.2 -7.6 0 0 0 0 1 5
2058 2 3.4 -7.8 0 0 0 0 1 5
2059 2 3.6 -7.8 0 0 0 0 1 5
2108 2 3.4 -7.6 0 0 0 0 1 5
2109 2 3.6 -7.6 0 0 0 0 1 5
2060 2 3.8 -7.8 0 0 0 0 1 5
2110 2 3.8 -7.6 0 0 0 0 1 5
2061 2 4 -7.8 0 0 0 0 1 5
2111 2 4 -7.6 0 0 0 0 1 5
2062 2 4.2 -7.8 0 0 0 0 1 5
2112 2 4.2 -7.6 0 0 0 0 1 5
2063 2 4.4 -7.8 0 0 0 0 1 5
2064 2 4.6 -7.8 0 0 0 0 1 5
2113 2 4.4 -7.6 0 0 0 0 1 5
2114 2 4.6 -7.6 0 0 0 0 1 5
2065 2 4.8 -7.8 0 0 0 0 1 5
2066 2 5 -7.8 0 0 0 0 1 5
2115 2 4.8 -7.6 0 0 0 0 1 5
2116 2 5 -7.6 0 0 0 0 1 5
2067 2 5.2 -7.8 0 0 0 0 1 5
2068 2 5.4 -7.8 0 0 0 0 1 5
2117 2 5.2 -7.6 0 0 0 0 1 5
2118 2 5.4 -7.6 0 0 0 0 1 5
2069 2 5.6 -7.8 0 0 0 0 1 5
2070 2 5.8 -7.8 0 0 0 0 1 5
2119 2 5.6 -7.6 0 0 0 0 1 5
2120 2 5.8 -7.6 0 0 0 0 1 5
2071 2 6 -7.8 0 0 0 0 1 5
2072 2 6.2 -7.8 0 0 0 0 1 5
2121 2 6 -7.6 0 0 0 0 1 5
2122 2 6.2 -7.6 0 0 0 0 1 5
2073 2 6.4 -7.8 0 0 0 0 1 5
2074 2 6.6 -7.8 0 0 0 0 1 5
2123 2 6.4 -7.6 0 0 0 0 1 5
2124 2 6.6 -7.6 0 0 0 0 1 5
2075 2 6.8 -7.8 0 0 0 0 1 5
2076 2 7 -7.8 0 0 0 0 1 5
2125 2 6.8 -7.6 0 0 0 0 1 5
2126 2 7 -7.6 0 0 0 0 1 5
2077 2 7.2 -7.8 0 0 0 0 1 5
2127 2 7.2 -7.6 0 0 0 0 1 5
2078 2 7.4 -7.8 0 0 0 0 1 5
2079 2 7.6 -7.8 0 0 0 0 1 5
2128 2 7.4 -7.6 0 0 0 0 1 5
2129 2 7.6 -7.6 0 0 0 0 1 5
2080 2 7.8 -7.8 0 0 0 0 1 5
2081 2 8 -7.8 0 0 0 0 1 5
2130 2 7.8 -7.6 0 0 0 0 1 5
2131 2 8 -7.6 0 0 0 0 1 5
2082 2 8.2 -7.8 0 0 0 0 1 5
2083 2 8.4 -7.8 0 0 0 0 1 5
2132 2 8.2 -7.6 0 0 0 0 1 5
2133 2 8.4 -7.6 0 0 0 0 1 5
2084 2 8.6 -7.8 0 0 0 0 1 5
2085 2 8.8 -7.8 0 0 0 0 1 5
2134 2 8.6 -7.6 0 0 0 0 1 5
2135 2 8.8 -7.6 0 0 0 0 1 5
2086 2 9 -7.8 0 0 0 0 1 5
2087 2 9.2 -7.8 0 0 0 0 1 5
2136 2 9 -7.6 0 0 0 0 1 5
2137 2 9.2 -7.6 0 0 0 0 1 5
2088 2 9.4 -7.8 0 0 0 0 1 5
2089 2 9.6 -7.8 0 0 0 0 1 5
2138 2 9.4 -7.6 0 0 0 0 1 5
2139 2 9.6 -7.6 0 0 0 0 1 5
2090 2 9.8 -7.8 0 0 0 0 1 5
2140 2 9.8 -7.6 0 0 0 0 1 5
2091 2 10 -7.8 0 0 0 0 1 5
2141 2 10 -7.6 0 0 0 0 1 5
2092 2 10.2 -7.8 0 0 0 0 1 5
2142 2 10.2 -7.6 0 0 0 0 1 5
2093 2 10.4 -7.8 0 0 0 0 1 5
2143 2 10.4 -7.6 0 0 0 0 1 5
2094 2 10.6 -7.8 0 0 0 0 1 5
2144 2 10.6 -7.6 0 0 0 0 1 5
2095 2 10.8 -7.8 0 0 0 0 1 5
2145 2 10.8 -7.6 0 0 0 0 1 5
2151 2 2 -7.4 0 0 0 0 1.00122 5
2201 2 2 -7.2 0 0 0 0 1.00038 5
2152 2 2.2 -7.4 0 0 0 0 0.998177 5
2153 2 2.4 -7.4 0 0 0 0 1.00096 5
2202 2 2.2 -7.2 0 0 0 0 0.998154 5
2203 2 2.4 -7.2 0 0 0 0 0.999656 5
2154 2 2.6 -7.4 0 0 0 0 1.00193 5
2155 2 2.8 -7.4 0 0 0 0 0.995544 5
2204 2 2.6 -7.2 0 0 0 0 0.999501 5
2205 2 2.8 -7.2 0 0 0 0 0.999687 5
2156 2 3 -7.4 0 0 0 0 1.00243 5
2157 2 3.2 -7.4 0 0 0 0 0.996657 5
2206 2 3 -7.2 0 0 0 0 1.00069 5
2207 2 3.2 -7.2 0 0 0 0 1.00037 5
2158 2 3.4 -7.4 0 0 0 0 1.00246 5
2159 2 3.6 -7.4 0 0 0 0 0.991616 5
2208 2 3.4 -7.2 0 0 0 0 1.0002 5
2209 2 3.6 -7.2 0 0 0 0 0.999692 5
2160 2 3.8 -7.4 0 0 0 0 1.00082 5
2210 2 3.8 -7.2 0 0 0 0 1.00303 5
2161 2 4 -7.4 0 0 0 0 1.00448 5
2211 2 4 -7.2 0 0 0 0 1.00726 5
2162 2 4.2 -7.4 0 0 0 0 1.02085 5
2212 2 4.2 -7.2 0 0 0 0 1.01572 5
2163 2 4.4 -7.4 0 0 0 0 1.01622 5
2164 2 4.6 -7.4 0 0 0 0 1.01419 5
2213 2 4.4 -7.2 0 0 0 0 1.01748 5
2214 2 4.6 -7.2 0 0 0 0 1.01463 5
2165 2 4.8 -7.4 0 0 0 0 1.0127 5
2166 2 5 -7.4 0 0 0 0 1.01249 5
2215 2 4.8 -7.2 0 0 0 0 1.01309 5
2216 2 5 -7.2 0 0 0 0 1.01282 5
2167 2 5.2 -7.4 0 0 0 0 1.01227 5
2168 2 5.4 -7.4 0 0 0 0 1.01183 5
2217 2 5.2 -7.2 0 0 0 0 1.01249 5
2218 2 5.4 -7.2 0 0 0 0 1.01215 5
2169 2 5.6 -7.4 0 0 0 0 1.01184 5
2170 2 5.8 -7.4 0 0 0 0 1.01189 5
2219 2 5.6 -7.2 0 0 0 0 1.01212 5
2220 2 5.8 -7.2 0 0 0 0 1.01215 5
2171 2 6 -7.4 0 0 0 0 1.01181 5
2172 2 6.2 -7.4 0 0 0 0 1.01163 5
2221 2 6 -7.2 0 0 0 0 1.01201 5
2222 2 6.2 -7.2 0 0 0 0 1.0119 5
2173 2 6.4 -7.4 0 0 0 0 1.01173 5
2174 2 6.6 -7.4 0 0 0 0 1.01181 5
2223 2 6.4 -7.2 0 0 0 0 1.01195 5
2224 2 6.6 -7.2 0 0 0 0 1.01197 5
2175 2 6.8 -7.4 0 0 0 0 1.01174 5
2176 2 7 -7.4 0 0 0 0 1.01179 5
2225 2 6.8 -7.2 0 0 0 0 1.01191 5
2226 2 7 -7.2 0 0 0 0 1.01193 5
2177 2 7.2 -7.4 0 0 0 0 1.01179 5
2227 2 7.2 -7.2 0 0 0 0 1.01189 5
2178 2 7.4 -7.4 0 0 0 0 1.01174 5
2179 2 7.6 -7.4 0 0 0 0 1.01171 5
2228 2 7.4 -7.2 0 0 0 0 1.01186 5
2229 2 7.6 -7.2 0 0 0 0 1.01184 5
2180 2 7.8 -7.4 0 0 0 0 1.01172 5
2181 2 8 -7.4 0 0 0 0 1.0117 5
2230 2 7.8 -7.2 0 0 0 0 1.01182 5
2231 2 8 -7.2 0 0 0 0 1.0118 5
2182 2 8.2 -7.4 0 0 0 0 1.01167 5
2183 2 8.4 -7.4 0 0 0 0 1.01166 5
2232 2 8.2 -7.2 0 0 0 0 1.01177 5
2233 2 8.4 -7.2 0 0 0 0 1.01174 5
2184 2 8.6 -7.4 0 0 0 0 1.01164 5
2185 2 8.8 -7.4 0 0 0 0 1.01161 5
2234 2 8.6 -7.2 0 0 0 0 1.01172 5
2235 2 8.8 -7.2 0 0 0 0 1.0117 5
2186 2 9 -7.4 0 0 0 0 1.0116 5
2187 2 9.2 -7.4 0 0 0 0 1.01156 5
2236 2 9 -7.2 0 0 0 0 1.01168 5
2237 2 9.2 -7.2 0 0 0 0 1.01164 5
2188 2 9.4 -7.4 0 0 0 0 1.01154 5
2189 2 9.6 -7.4 0 0 0 0 1.01151 5
2238 2 9.4 -7.2 0 0 0 0 1.01161 5
2239 2 9.6 -7.2 0 0 0 0 1.01158 5
2190 2 9.8 -7.4 0 0 0 0 1.01149 5
2240 2 9.8 -7.2 0 0 0 0 1.01156 5
2191 2 10 -7.4 0 0 0 0 1.01144 5
2241 2 10 -7.2 0 0 0 0 1.01153 5
2192 2 10.2 -7.4 0 0 0 0 1.01145 5
2242 2 10.2 -7.2 0 0 0 0 1.01152 5
2193 2 10.4 -7.4 0 0 0 0 1.01143 5
2243 2 10.4 -7.2 0 0 0 0 1.0115 5
2194 2 10.6 -7.4 0 0 0 0 1.01142 5
2244 2 10.6 -7.2 0 0 0 0 1.0115 5
2195 2 10.8 -7.4 0 0 0 0 1.01142 5
2245 2 10.8 -7.2 0 0 0 0 1.01149 5
11540 1 1.37579 -6.76109 0.02 0 -3.0003e-06 -2.05405e-06 1 2
11543 1 1.58666 -6.74254 0.02 0 -0.000189805 -7.12751e-05 1 2
11544 1 1.79907 -6.7662 0.02 0 -0.00267162 -0.000826836 1 2
11546 1 2.02345 -6.76418 0.02 0 -0.00397403 -0.000549357 1 2
11547 1 2.23622 -6.75047 0.02 0 -0.00292236 -0.000418834 1 2
11548 1 2.43865 -6.74763 0.02 0 -0.00271881 -0.000477473 1 2
2251 2 2 -7 0 0 0 0 1.00096 5
11550 1 2.64174 -6.75299 0.02 0 -0.0030121 -0.000461697 1 2
11551 1 2.84252 -6.73295 0.02 0 -0.00239898 -0.00046411 1 2
2252 2 2.2 -7 0 0 0 0 0.998966 5
2253 2 2.4 -7 0 0 0 0 0.999554 5
10852 1 3.24303 -6.73735 0.02 0 -0.00248926 -0.00041283 1 2
11552 1 3.04136 -6.75624 0.02 0 -0.00306982 -0.000450406 1 2
2254 2 2.6 -7 0 0 0 0 0.999604 5
2255 2 2.8 -7 0 0 0 0 0.999845 5
10853 1 3.44028 -6.76508 0.02 0 -0.00342951 -0.000411252 1 2
10854 1 3.62593 -6.7155 0.02 0 -0.00207019 -0.000215019 1 2
2256 2 3 -7 0 0 0 0 1.00033 5
2257 2 3.2 -7 0 0 0 0 1.00028 5
10855 1 3.81596 -6.76146 0.02 0 -0.00496169 -0.000591659 1 2
10856 1 3.99992 -6.74734 0.02 0 -0.00880336 5.09517e-05 1.00572 2
2258 2 3.4 -7 0 0 0 0 1.00004 5
2259 2 3.6 -7 0 0 0 0 1.00036 5
2260 2 3.8 -7 0 0 0 0 1.00331 5
10857 1 4.09889 -6.74294 0.0106943 0.000784753 0.000674179 0.000329871 1.02083 0
10858 1 4.23209 -6.73672 0.00900001 0.000171972 0.000203947 0.000100658 1.02382 0
10859 1 4.36508 -6.65308 0.0111774 0.00146711 1.2141e-05 2.32468e-05 1.01923 0
2261 2 4 -7 0 0 0 0 1.0083 5
2262 2 4.2 -7 0 0 0 0 1.0156 5
10860 1 4.55355 -6.55942 0.0125541 0.00218349 9.09479e-06 1.29707e-05 1.01551 0
10861 1 4.47074 -6.75379 0.00737598 0.00040366 2.4722e-05 1.86588e-05 1.01759 0
10163 1 4.6304 -6.73978 0.00686731 0.000543551 5.06306e-06 6.22702e-06 1.01515 0
2263 2 4.4 -7 0 0 0 0 1.01785 5
2264 2 4.6 -7 0 0 0 0 1.01522 5
10165 1 4.80004 -6.73109 0.0059679 0.000436696 3.07187e-06 3.25508e-06 1.01404 0
10167 1 4.98313 -6.59592 0.00835461 0.000982037 6.20371e-06 1.93064e-06 1.01358 0
10169 1 4.97682 -6.76841 0.00416281 0.000127519 3.7079e-06 5.85965e-07 1.01392 0
10172 1 5.14598 -6.69932 0.00511734 0.000278737 6.2737e-06 -6.69293e-07 1.01334 0
2265 2 4.8 -7 0 0 0 0 1.01354 5
2266 2 5 -7 0 0 0 0 1.01314 5
3105 1 5.29361 -6.7243 0.00406302 6.19266e-05 6.92429e-06 -2.06966e-06 1.01315 0
3103 1 5.58834 -6.60351 0.00560285 0.000362344 9.60879e-06 -3.40236e-06 1.01255 0
3109 1 5.45547 -6.75389 0.0031543 -4.11396e-05 7.08552e-06 -2.90905e-06 1.01292 0
2267 2 5.2 -7 0 0 0 0 1.01281 5
2268 2 5.4 -7 0 0 0 0 1.0125 5
3111 1 5.76113 -6.6002 0.00519192 0.000299924 8.19761e-06 -3.5171e-06 1.01242 0
3113 1 5.66449 -6.78578 0.00244232 -8.55916e-05 5.91028e-06 -2.8971e-06 1.01276 0
3115 1 5.88042 -6.69878 0.0033883 7.6777e-05 5.64246e-06 -2.60037e-06 1.01245 0
2269 2 5.6 -7 0 0 0 0 1.01241 5
2270 2 5.8 -7 0 0 0 0 1.01235 5
3116 1 6.03547 -6.72555 0.00276182 2.84445e-06 3.53148e-06 -1.89796e-06 1.01242 0
3117 1 6.20825 -6.71764 0.00264627 5.89244e-06 1.78358e-06 -1.24691e-06 1.01227 0
2271 2 6 -7 0 0 0 0 1.01217 5
2272 2 6.2 -7 0 0 0 0 1.0121 5
3118 1 6.46421 -6.621 0.00370591 0.000137058 -3.96722e-07 -6.04576e-07 1.01213 0
3119 1 6.38468 -6.78822 0.00179575 -0.000104573 3.15753e-07 -5.06762e-07 1.01241 0
3120 1 6.61564 -6.67689 0.00284017 6.52996e-05 -1.15349e-06 -1.5645e-07 1.01211 0
3121 1 6.75363 -6.75463 0.00187041 -6.17575e-05 -1.21381e-06 1.4333e-07 1.01227 0
2273 2 6.4 -7 0 0 0 0 1.01213 5
2274 2 6.6 -7 0 0 0 0 1.0121 5
3122 1 6.92885 -6.62204 0.00323284 9.84266e-05 -2.03431e-06 2.27825e-07 1.01203 0
3123 1 6.99337 -6.7625 0.00168208 -6.0867e-05 -1.19246e-06 2.25165e-07 1.01223 0
3124 1 7.17261 -6.70338 0.00219958 -1.01383e-05 -1.33678e-06 2.5693e-07 1.01207 0
2275 2 6.8 -7 0 0 0 0 1.01206 5
2276 2 7 -7 0 0 0 0 1.01205 5
3125 1 7.34553 -6.7439 0.00173452 -6.09108e-05 -8.26541e-07 1.63936e-07 1.01213 0
3126 1 7.52913 -6.70935 0.00200611 -3.98422e-05 -5.01376e-07 9.53528e-08 1.01206 0
2277 2 7.2 -7 0 0 0 0 1.01199 5
2278 2 7.4 -7 0 0 0 0 1.01196 5
2279 2 7.6 -7 0 0 0 0 1.01194 5
3127 1 7.70311 -6.72684 0.00178539 -6.54078e-05 -1.31724e-07 2.96519e-08 1.01208 0
3128 1 7.88251 -6.72241 0.00177217 -6.19128e-05 2.39912e-07 -3.91045e-08 1.01206 0
3129 1 8.06022 -6.71577 0.0017829 -6.50647e-05 5.50374e-07 -9.21841e-08 1.01202 0
2280 2 7.8 -7 0 0 0 0 1.01192 5
2281 2 8 -7 0 0 0 0 1.01189 5
3130 1 8.24053 -6.71688 0.00172902 -6.2887e-05 8.29893e-07 -1.51312e-07 1.01198 0
3131 1 8.41642 -6.71531 0.00170018 -6.28135e-05 1.00879e-06 -1.78618e-07 1.01196 0
2282 2 8.2 -7 0 0 0 0 1.01186 5
2283 2 8.4 -7 0 0 0 0 1.01183 5
3132 1 8.59551 -6.71533 0.001647 -5.96634e-05 1.184e-06 -2.14071e-07 1.01191 0
3133 1 8.77801 -6.73316 0.00147996 -6.71168e-05 1.23931e-06 -2.15522e-07 1.0119 0
2284 2 8.6 -7 0 0 0 0 1.0118 5
2285 2 8.8 -7 0 0 0 0 1.01178 5
3134 1 8.97554 -6.73706 0.00141317 -6.61152e-05 1.33168e-06 -2.35122e-07 1.01188 0
3135 1 9.17619 -6.72636 0.00145472 -6.09065e-05 1.48063e-06 -2.78649e-07 1.01182 0
2286 2 9 -7 0 0 0 0 1.01176 5
2287 2 9.2 -7 0 0 0 0 1.01172 5
3136 1 9.36795 -6.73554 0.00135783 -6.79807e-05 1.45694e-06 -2.97229e-07 1.01181 0
3137 1 9.56575 -6.7228 0.00141967 -6.08699e-05 1.53539e-06 -3.47998e-07 1.01176 0
2288 2 9.4 -7 0 0 0 0 1.01169 5
2289 2 9.6 -7 0 0 0 0 1.01166 5
3138 1 9.75655 -6.73165 0.00133204 -6.49913e-05 1.43602e-06 -3.58744e-07 1.01175 0
3139 1 9.95186 -6.71597 0.00141514 -5.54772e-05 1.40521e-06 -4.01673e-07 1.01169 0
2290 2 9.8 -7 0 0 0 0 1.01163 5
3140 1 10.1399 -6.73714 0.00125574 -6.6863e-05 1.1503e-06 -3.81028e-07 1.01171 0
2291 2 10 -7 0 0 0 0 1.01161 5
3141 1 10.3451 -6.73141 0.00126983 -6.14675e-05 9.35997e-07 -3.79401e-07 1.01168 0
2292 2 10.2 -7 0 0 0 0 1.01159 5
3142 1 10.5501 -6.74181 0.00119257 -6.49766e-05 6.37359e-07 -3.36348e-07 1.01167 0
2293 2 10.4 -7 0 0 0 0 1.01158 5
3143 1 10.7625 -6.73441 0.00122236 -5.9953e-05 3.37686e-07 -2.90351e-07 1.01165 0
2294 2 10.6 -7 0 0 0 0 1.01157 5
3144 1 10.9655 -6.72113 0.00129187 -5.58047e-05 3.26762e-08 -2.41222e-07 1.01161 0
2295 2 10.8 -7 0 0 0 0 1.01155 5
11553 1 1.39612 -6.57974 0.02 0 -2.18941e-09 6.59555e-10 1 2
11554 1 1.39777 -6.39966 0.02 0 2.30356e-10 2.60131e-10 1 2
11555 1 1.38401 -6.21768 0.02 0 1.57056e-12 2.39414e-12 1 2
11556 1 1.61145 -6.56775 0.02 0 -2.40971e-07 2.49759e-05 1 2
11558 1 1.59952 -6.38993 0.02 0 1.2896e-07 1.84202e-06 1 2
11560 1 1.61286 -6.21074 0.02 0 7.4444e-09 1.03045e-07 1 2
11557 1 1.81712 -6.57957 0.02 0 -0.00011065 0.000202707 1 2
11559 1 1.80794 -6.39446 0.02 0 4.20527e-06 1.69953e-05 1 2
11561 1 1.82833 -6.20884 0.02 0 1.67481e-07 1.76312e-06 1 2
11565 1 2.01879 -6.41096 0.02 0 6.72457e-05 9.71717e-05 1 2
11562 1 2.02314 -6.58622 0.02 0 -0.000109456 0.000283787 1 2
11564 1 2.03553 -6.22944 0.02 0 4.39911e-06 1.15854e-05 1 2
11563 1 2.23301 -6.5729 0.02 0 0.000102229 0.000389046 1 2
11566 1 2.24101 -6.39878 0.02 0 0.000122578 0.000161431 1 2
11567 1 2.24343 -6.21988 0.02 0 1.10369e-05 2.05814e-05 1 2
11569 1 2.44727 -6.56684 0.02 0 0.000169967 0.000432138 1 2
11570 1 2.45845 -6.38951 0.02 0 0.000116287 0.000162807 1 2
11571 1 2.45457 -6.20844 0.02 0 9.43451e-06 1.68642e-05 1 2
11568 1 2.65655 -6.57075 0.02 0 9.08993e-05 0.000435215 1 2
11572 1 2.6707 -6.38875 0.02 0 0.000103943 0.000155005 1 2
11573 1 2.6591 -6.20064 0.02 0 7.58596e-06 1.33966e-05 1 2
11575 1 2.86292 -6.55006 0.02 0 0.000166588 0.000441025 1 2
11577 1 2.85634 -6.1728 0.02 0 4.61976e-06 8.78884e-06 1 2
11576 1 2.87645 -6.36308 0.02 0 7.83971e-05 0.000125691 1 2
10863 1 3.2528 -6.55221 0.02 0 0.0001524 0.000377372 1 2
10864 1 3.27394 -6.36404 0.02 0 7.72695e-05 0.000125346 1 2
10865 1 3.25329 -6.17382 0.02 0 4.83772e-06 8.98766e-06 1 2
11574 1 3.05826 -6.56449 0.02 0 0.00012736 0.00043173 1 2
11578 1 3.07713 -6.37007 0.02 0 8.5349e-05 0.000135779 1 2
11579 1 3.0541 -6.17393 0.02 0 4.75356e-06 8.99467e-06 1 2
10866 1 3.45014 -6.57061 0.02 0 0.000120693 0.000413287 1 2
10868 1 3.46416 -6.37826 0.02 0 8.26895e-05 0.000137578 1 2
10870 1 3.4522 -6.17653 0.02 0 -1.5353e-06 9.25066e-06 1 2
10867 1 3.65527 -6.53716 0.02 0 -0.000152509 0.000503768 1 2
10869 1 3.65354 -6.34872 0.02 0 -0.000302656 9.35038e-05 1 2
10871 1 3.99956 -6.55054 0.02 0 -0.00223533 0.000537551 1.0124 2
10872 1 3.84677 -6.56851 0.02 0 -0.00174072 0.000403634 1 2
10873 1 3.84637 -6.37218 0.02 0 -0.00179608 0.000139498 1 2
10874 1 3.99963 -6.35252 0.02 0 -0.00218542 0.000647197 1.01147 2
10875 1 3.84429 -6.17262 0.02 0 -0.00221082 1.33553e-05 1 2
10876 1 4.29203 -6.50392 0.0147334 0.00323848 -5.03488e-05 4.2721e-05 1.02017 0
10877 1 4.14854 -6.53731 0.0147884 0.00259697 -0.000161167 0.000158776 1.0209 0
10878 1 4.15738 -6.34097 0.0156669 0.00308761 -0.000301855 9.91821e-05 1.01925 0
10879 1 4.30774 -6.29107 0.0161406 0.00420328 -8.90193e-05 2.83057e-05 1.01811 0
10880 1 4.43309 -6.43537 0.0153276 0.00346968 -5.2542e-06 1.67676e-05 1.01704 0
10882 1 4.45675 -6.21185 0.0166134 0.00451852 -5.97751e-06 1.36964e-05 1.0156 0
10862 1 4.72873 -6.56689 0.0109491 0.0017627 8.42805e-06 6.81721e-06 1.0142 0
10881 1 4.57466 -6.34768 0.0155184 0.00370954 6.24519e-06 1.24416e-05 1.01516 0
10884 1 4.62554 -6.16146 0.0162949 0.00444473 5.726e-06 7.72184e-06 1.01459 0
10883 1 4.72439 -6.38085 0.0141483 0.00298106 7.78661e-06 7.8691e-06 1.01458 0
10885 1 4.78507 -6.14961 0.0156362 0.00402132 7.08122e-06 4.32789e-06 1.01438 0
10887 1 4.87633 -6.30783 0.0138906 0.00294404 6.92163e-06 3.26485e-06 1.01438 0
10164 1 4.89065 -6.48156 0.0113923 0.00184779 6.63995e-06 3.99826e-06 1.01415 0
10173 1 5.02735 -6.23668 0.0136897 0.00283499 7.41e-06 1.10971e-06 1.01415 0
10176 1 5.10888 -6.37525 0.0115723 0.00185928 8.4335e-06 1.13035e-07 1.01387 0
10166 1 5.15789 -6.5321 0.00870145 0.000959523 8.34373e-06 -3.0782e-07 1.01344 0
10177 1 5.22915 -6.20755 0.0129028 0.00239092 9.11809e-06 -1.25799e-06 1.0137 0
10182 1 5.38514 -6.28543 0.0112508 0.0016781 1.04075e-05 -2.50993e-06 1.01334 0
10168 1 5.303 -6.4328 0.00966023 0.00118123 1.02033e-05 -1.96225e-06 1.01334 0
10183 1 5.5184 -6.17638 0.0118378 0.00190932 1.01535e-05 -2.97434e-06 1.01317 0
10170 1 5.40449 -6.56284 0.00699044 0.000580336 1.0247e-05 -2.62017e-06 1.01288 0
10189 1 5.64473 -6.28449 0.0100967 0.00130046 1.00938e-05 -3.50868e-06 1.01295 0
10171 1 5.54199 -6.43 0.00861845 0.000892408 1.08492e-05 -3.47272e-06 1.01292 0
10192 1 5.81256 -6.20521 0.0103384 0.00136874 8.27321e-06 -3.36627e-06 1.01281 0
3104 1 5.75892 -6.42004 0.0079379 0.000754526 9.15479e-06 -3.71373e-06 1.01266 0
3102 1 5.95752 -6.28916 0.00890839 0.000963659 6.33995e-06 -3.24158e-06 1.01264 0
3106 1 5.93018 -6.4692 0.00674791 0.000529172 6.74148e-06 -3.28006e-06 1.01246 0
3152 1 6.11894 -6.19342 0.00944847 0.00108983 3.75248e-06 -2.54551e-06 1.01256 0
3107 1 6.18776 -6.3432 0.00763197 0.000669138 2.73986e-06 -2.27469e-06 1.01242 0