ITEM: TIMESTEP
48000
ITEM: NUMBER OF ATOMS
11925
ITEM: BOX BOUNDS ff ff pp
0.0000000000000000e+00 2.2000000000000000e+01
-1.0000000000000000e+01 1.0000000000000000e+01
-2.0000000000000000e-02 2.0000000000000000e-02
ITEM: ATOMS id type x y vx vy fx fy c_den c_phase
1501 2 2 -10 0 0 0 0 1 5
1535 2 2 -9.8 0 0 0 0 1 5
1569 2 2 -9.6 0 0 0 0 1 5
1502 2 2.2 -10 0 0 0 0 1 5
1503 2 2.4 -10 0 0 0 0 1 5
1536 2 2.2 -9.8 0 0 0 0 1 5
1537 2 2.4 -9.8 0 0 0 0 1 5
1570 2 2.2 -9.6 0 0 0 0 1 5
1571 2 2.4 -9.6 0 0 0 0 1 5
1504 2 2.6 -10 0 0 0 0 1 5
1505 2 2.8 -10 0 0 0 0 1 5
1538 2 2.6 -9.8 0 0 0 0 1 5
1539 2 2.8 -9.8 0 0 0 0 1 5
1572 2 2.6 -9.6 0 0 0 0 1 5
1573 2 2.8 -9.6 0 0 0 0 1 5
1506 2 3 -10 0 0 0 0 1 5
1540 2 3 -9.8 0 0 0 0 1 5
1574 2 3 -9.6 0 0 0 0 1 5
1507 2 3.2 -10 0 0 0 0 1 5
1541 2 3.2 -9.8 0 0 0 0 1 5
1575 2 3.2 -9.6 0 0 0 0 1 5
1508 2 3.4 -10 0 0 0 0 1 5
1542 2 3.4 -9.8 0 0 0 0 1 5
1576 2 3.4 -9.6 0 0 0 0 1 5
1509 2 3.6 -10 0 0 0 0 1 5
1543 2 3.6 -9.8 0 0 0 0 1 5
1577 2 3.6 -9.6 0 0 0 0 1 5
1510 2 3.8 -10 0 0 0 0 1 5
1544 2 3.8 -9.8 0 0 0 0 1 5
1578 2 3.8 -9.6 0 0 0 0 1 5
1511 2 4 -10 0 0 0 0 1 5
1512 2 4.2 -10 0 0 0 0 1 5
1545 2 4 -9.8 0 0 0 0 1 5
1546 2 4.2 -9.8 0 0 0 0 1 5
1579 2 4 -9.6 0 0 0 0 1 5
1580 2 4.2 -9.6 0 0 0 0 1 5
1513 2 4.4 -10 0 0 0 0 1 5
1514 2 4.6 -10 0 0 0 0 1 5
1547 2 4.4 -9.8 0 0 0 0 1 5
1548 2 4.6 -9.8 0 0 0 0 1 5
1581 2 4.4 -9.6 0 0 0 0 1 5
1582 2 4.6 -9.6 0 0 0 0 1 5
1515 2 4.8 -10 0 0 0 0 1 5
1516 2 5 -10 0 0 0 0 1 5
1549 2 4.8 -9.8 0 0 0 0 1 5
1550 2 5 -9.8 0 0 0 0 1 5
1583 2 4.8 -9.6 0 0 0 0 1 5
1584 2 5 -9.6 0 0 0 0 1 5
1517 2 5.2 -10 0 0 0 0 1 5
1518 2 5.4 -10 0 0 0 0 1 5
1551 2 5.2 -9.8 0 0 0 0 1 5
1552 2 5.4 -9.8 0 0 0 0 1 5
1585 2 5.2 -9.6 0 0 0 0 1 5
1586 2 5.4 -9.6 0 0 0 0 1 5
1519 2 5.6 -10 0 0 0 0 1 5
1553 2 5.6 -9.8 0 0 0 0 1 5
1587 2 5.6 -9.6 0 0 0 0 1 5
1520 2 5.8 -10 0 0 0 0 1 5
1554 2 5.8 -9.8 0 0 0 0 1 5
1588 2 5.8 -9.6 0 0 0 0 1 5
1521 2 6 -10 0 0 0 0 1 5
1555 2 6 -9.8 0 0 0 0 1 5
1589 2 6 -9.6 0 0 0 0 1 5
1522 2 6.2 -10 0 0 0 0 1 5
1523 2 6.4 -10 0 0 0 0 1 5
1556 2 6.2 -9.8 0 0 0 0 1 5
1557 2 6.4 -9.8 0 0 0 0 1 5
1590 2 6.2 -9.6 0 0 0 0 1 5
1591 2 6.4 -9.6 0 0 0 0 1 5
1524 2 6.6 -10 0 0 0 0 1 5
1525 2 6.8 -10 0 0 0 0 1 5
1558 2 6.6 -9.8 0 0 0 0 1 5
1559 2 6.8 -9.8 0 0 0 0 1 5
1592 2 6.6 -9.6 0 0 0 0 1 5
1593 2 6.8 -9.6 0 0 0 0 1 5
1526 2 7 -10 0 0 0 0 1 5
1527 2 7.2 -10 0 0 0 0 1 5
1560 2 7 -9.8 0 0 0 0 1 5
1561 2 7.2 -9.8 0 0 0 0 1 5
1594 2 7 -9.6 0 0 0 0 1 5
1595 2 7.2 -9.6 0 0 0 0 1 5
1603 2 2 -9.4 0 0 0 0 1 5
1637 2 2 -9.2 0 0 0 0 1 5
1604 2 2.2 -9.4 0 0 0 0 1 5
1605 2 2.4 -9.4 0 0 0 0 1 5
1638 2 2.2 -9.2 0 0 0 0 1 5
1639 2 2.4 -9.2 0 0 0 0 1 5
1606 2 2.6 -9.4 0 0 0 0 1 5
1607 2 2.8 -9.4 0 0 0 0 1 5
1640 2 2.6 -9.2 0 0 0 0 1 5
1641 2 2.8 -9.2 0 0 0 0 1 5
1608 2 3 -9.4 0 0 0 0 1 5
1642 2 3 -9.2 0 0 0 0 1 5
1609 2 3.2 -9.4 0 0 0 0 1 5
1643 2 3.2 -9.2 0 0 0 0 1 5
1610 2 3.4 -9.4 0 0 0 0 1 5
1644 2 3.4 -9.2 0 0 0 0 1 5
1611 2 3.6 -9.4 0 0 0 0 1 5
1645 2 3.6 -9.2 0 0 0 0 1 5
1612 2 3.8 -9.4 0 0 0 0 1 5
1646 2 3.8 -9.2 0 0 0 0 1 5
1613 2 4 -9.4 0 0 0 0 1 5
1614 2 4.2 -9.4 0 0 0 0 1 5
1647 2 4 -9.2 0 0 0 0 1 5
1648 2 4.2 -9.2 0 0 0 0 1 5
1615 2 4.4 -9.4 0 0 0 0 1 5
1616 2 4.6 -9.4 0 0 0 0 1 5
1649 2 4.4 -9.2 0 0 0 0 1 5
1650 2 4.6 -9.2 0 0 0 0 1 5
1617 2 4.8 -9.4 0 0 0 0 1 5
1618 2 5 -9.4 0 0 0 0 1 5
1651 2 4.8 -9.2 0 0 0 0 1 5
1652 2 5 -9.2 0 0 0 0 1 5
1619 2 5.2 -9.4 0 0 0 0 1 5
1620 2 5.4 -9.4 0 0 0 0 1 5
1653 2 5.2 -9.2 0 0 0 0 1 5
1654 2 5.4 -9.2 0 0 0 0 1 5
1621 2 5.6 -9.4 0 0 0 0 1 5
1655 2 5.6 -9.2 0 0 0 0 1 5
1622 2 5.8 -9.4 0 0 0 0 1 5
1656 2 5.8 -9.2 0 0 0 0 1 5
1623 2 6 -9.4 0 0 0 0 1 5
1657 2 6 -9.2 0 0 0 0 1 5
1624 2 6.2 -9.4 0 0 0 0 1 5
1625 2 6.4 -9.4 0 0 0 0 1 5
1658 2 6.2 -9.2 0 0 0 0 1 5
1659 2 6.4 -9.2 0 0 0 0 1 5
1626 2 6.6 -9.4 0 0 0 0 1 5
1627 2 6.8 -9.4 0 0 0 0 1 5
1660 2 6.6 -9.2 0 0 0 0 1 5
1661 2 6.8 -9.2 0 0 0 0 1 5
1628 2 7 -9.4 0 0 0 0 1 5
1629 2 7.2 -9.4 0 0 0 0 1 5
1662 2 7 -9.2 0 0 0 0 1 5
1663 2 7.2 -9.2 0 0 0 0 1 5
1671 2 2 -9 0 0 0 0 1 5
1705 2 2 -8.8 0 0 0 0 1 5
1672 2 2.2 -9 0 0 0 0 1 5
1673 2 2.4 -9 0 0 0 0 1 5
1706 2 2.2 -8.8 0 0 0 0 1 5
1707 2 2.4 -8.8 0 0 0 0 1 5
1674 2 2.6 -9 0 0 0 0 1 5
1675 2 2.8 -9 0 0 0 0 1 5
1708 2 2.6 -8.8 0 0 0 0 1 5
1709 2 2.8 -8.8 0 0 0 0 1 5
1676 2 3 -9 0 0 0 0 1 5
1710 2 3 -8.8 0 0 0 0 1 5
1677 2 3.2 -9 0 0 0 0 1 5
1711 2 3.2 -8.8 0 0 0 0 1 5
1678 2 3.4 -9 0 0 0 0 1 5
1712 2 3.4 -8.8 0 0 0 0 1 5
1679 2 3.6 -9 0 0 0 0 1 5
1713 2 3.6 -8.8 0 0 0 0 1 5
1680 2 3.8 -9 0 0 0 0 1 5
1714 2 3.8 -8.8 0 0 0 0 1 5
1681 2 4 -9 0 0 0 0 1 5
1682 2 4.2 -9 0 0 0 0 1 5
1715 2 4 -8.8 0 0 0 0 1 5
1716 2 4.2 -8.8 0 0 0 0 1 5
1683 2 4.4 -9 0 0 0 0 1 5
1684 2 4.6 -9 0 0 0 0 1 5
1717 2 4.4 -8.8 0 0 0 0 1 5
1718 2 4.6 -8.8 0 0 0 0 1 5
1685 2 4.8 -9 0 0 0 0 1 5
1686 2 5 -9 0 0 0 0 1 5
1719 2 4.8 -8.8 0 0 0 0 1 5
1720 2 5 -8.8 0 0 0 0 1 5
1687 2 5.2 -9 0 0 0 0 1 5
1688 2 5.4 -9 0 0 0 0 1 5
1721 2 5.2 -8.8 0 0 0 0 1 5
1722 2 5.4 -8.8 0 0 0 0 1 5
1689 2 5.6 -9 0 0 0 0 1 5
1723 2 5.6 -8.8 0 0 0 0 1 5
1690 2 5.8 -9 0 0 0 0 1 5
1724 2 5.8 -8.8 0 0 0 0 1 5
1691 2 6 -9 0 0 0 0 1 5
1725 2 6 -8.8 0 0 0 0 1 5
1692 2 6.2 -9 0 0 0 0 1 5
1693 2 6.4 -9 0 0 0 0 1 5
1726 2 6.2 -8.8 0 0 0 0 1 5
1727 2 6.4 -8.8 0 0 0 0 1 5
1694 2 6.6 -9 0 0 0 0 1 5
1695 2 6.8 -9 0 0 0 0 1 5
1728 2 6.6 -8.8 0 0 0 0 1 5
1729 2 6.8 -8.8 0 0 0 0 1 5
1696 2 7 -9 0 0 0 0 1 5
1697 2 7.2 -9 0 0 0 0 1 5
1730 2 7 -8.8 0 0 0 0 1 5
1731 2 7.2 -8.8 0 0 0 0 1 5
1739 2 2 -8.6 0 0 0 0 1 5
1773 2 2 -8.4 0 0 0 0 1 5
1740 2 2.2 -8.6 0 0 0 0 1 5
1741 2 2.4 -8.6 0 0 0 0 1 5
1774 2 2.2 -8.4 0 0 0 0 1 5
1775 2 2.4 -8.4 0 0 0 0 1 5
1742 2 2.6 -8.6 0 0 0 0 1 5
1743 2 2.8 -8.6 0 0 0 0 1 5
1776 2 2.6 -8.4 0 0 0 0 1 5
1777 2 2.8 -8.4 0 0 0 0 1 5
1744 2 3 -8.6 0 0 0 0 1 5
1778 2 3 -8.4 0 0 0 0 1 5
1745 2 3.2 -8.6 0 0 0 0 1 5
1779 2 3.2 -8.4 0 0 0 0 1 5
1746 2 3.4 -8.6 0 0 0 0 1 5
1780 2 3.4 -8.4 0 0 0 0 1 5
1747 2 3.6 -8.6 0 0 0 0 1 5
1781 2 3.6 -8.4 0 0 0 0 1 5
1748 2 3.8 -8.6 0 0 0 0 1 5
1782 2 3.8 -8.4 0 0 0 0 1 5
1749 2 4 -8.6 0 0 0 0 1 5
1750 2 4.2 -8.6 0 0 0 0 1 5
1783 2 4 -8.4 0 0 0 0 1 5
1784 2 4.2 -8.4 0 0 0 0 1 5
1751 2 4.4 -8.6 0 0 0 0 1 5
1752 2 4.6 -8.6 0 0 0 0 1 5
1785 2 4.4 -8.4 0 0 0 0 1 5
1786 2 4.6 -8.4 0 0 0 0 1 5
1753 2 4.8 -8.6 0 0 0 0 1 5
1754 2 5 -8.6 0 0 0 0 1 5
1787 2 4.8 -8.4 0 0 0 0 1 5
1788 2 5 -8.4 0 0 0 0 1 5
1755 2 5.2 -8.6 0 0 0 0 1 5
1756 2 5.4 -8.6 0 0 0 0 1 5
1789 2 5.2 -8.4 0 0 0 0 1 5
1790 2 5.4 -8.4 0 0 0 0 1 5
1757 2 5.6 -8.6 0 0 0 0 1 5
1791 2 5.6 -8.4 0 0 0 0 1 5
1758 2 5.8 -8.6 0 0 0 0 1 5
1792 2 5.8 -8.4 0 0 0 0 1 5
1759 2 6 -8.6 0 0 0 0 1 5
1793 2 6 -8.4 0 0 0 0 1 5
1760 2 6.2 -8.6 0 0 0 0 1 5
1761 2 6.4 -8.6 0 0 0 0 1 5
1794 2 6.2 -8.4 0 0 0 0 1 5
1795 2 6.4 -8.4 0 0 0 0 1 5
1762 2 6.6 -8.6 0 0 0 0 1 5
1763 2 6.8 -8.6 0 0 0 0 1 5
1796 2 6.6 -8.4 0 0 0 0 1 5
1797 2 6.8 -8.4 0 0 0 0 1 5
1764 2 7 -8.6 0 0 0 0 1 5
1765 2 7.2 -8.6 0 0 0 0 1 5
1798 2 7 -8.4 0 0 0 0 1 5
1799 2 7.2 -8.4 0 0 0 0 1 5
1807 2 2 -8.2 0 0 0 0 1 5
1841 2 2 -8 0 0 0 0 1 5
1808 2 2.2 -8.2 0 0 0 0 1 5
1809 2 2.4 -8.2 0 0 0 0 1 5
1842 2 2.2 -8 0 0 0 0 1 5
1843 2 2.4 -8 0 0 0 0 1 5
1810 2 2.6 -8.2 0 0 0 0 1 5
1811 2 2.8 -8.2 0 0 0 0 1 5
1844 2 2.6 -8 0 0 0 0 1 5
1845 2 2.8 -8 0 0 0 0 1 5
1812 2 3 -8.2 0 0 0 0 1 5
1846 2 3 -8 0 0 0 0 1 5
1813 2 3.2 -8.2 0 0 0 0 1 5
1847 2 3.2 -8 0 0 0 0 1 5
1814 2 3.4 -8.2 0 0 0 0 1 5
1848 2 3.4 -8 0 0 0 0 1 5
1815 2 3.6 -8.2 0 0 0 0 1 5
1849 2 3.6 -8 0 0 0 0 1 5
1816 2 3.8 -8.2 0 0 0 0 1 5
1850 2 3.8 -8 0 0 0 0 1 5
1817 2 4 -8.2 0 0 0 0 1 5
1818 2 4.2 -8.2 0 0 0 0 1 5
1851 2 4 -8 0 0 0 0 1 5
1852 2 4.2 -8 0 0 0 0 1 5
1819 2 4.4 -8.2 0 0 0 0 1 5
1820 2 4.6 -8.2 0 0 0 0 1 5
1853 2 4.4 -8 0 0 0 0 1 5
1854 2 4.6 -8 0 0 0 0 1 5
1821 2 4.8 -8.2 0 0 0 0 1 5
1822 2 5 -8.2 0 0 0 0 1 5
1855 2 4.8 -8 0 0 0 0 1 5
1856 2 5 -8 0 0 0 0 1 5
1823 2 5.2 -8.2 0 0 0 0 1 5
1824 2 5.4 -8.2 0 0 0 0 1 5
1857 2 5.2 -8 0 0 0 0 1 5
1858 2 5.4 -8 0 0 0 0 1 5
1825 2 5.6 -8.2 0 0 0 0 1 5
1859 2 5.6 -8 0 0 0 0 1 5
1826 2 5.8 -8.2 0 0 0 0 1 5
1860 2 5.8 -8 0 0 0 0 1 5
1827 2 6 -8.2 0 0 0 0 1 5
1861 2 6 -8 0 0 0 0 1 5
1828 2 6.2 -8.2 0 0 0 0 1 5
1829 2 6.4 -8.2 0 0 0 0 1 5
1862 2 6.2 -8 0 0 0 0 1 5
1863 2 6.4 -8 0 0 0 0 1 5
1830 2 6.6 -8.2 0 0 0 0 1 5
1831 2 6.8 -8.2 0 0 0 0 1 5
1864 2 6.6 -8 0 0 0 0 1 5
1865 2 6.8 -8 0 0 0 0 1 5
1832 2 7 -8.2 0 0 0 0 1 5
1833 2 7.2 -8.2 0 0 0 0 1 5
1866 2 7 -8 0 0 0 0 1 5
1867 2 7.2 -8 0 0 0 0 1 5
1875 2 2 -7.8 0 0 0 0 1 5
1909 2 2 -7.6 0 0 0 0 1 5
1943 2 2 -7.4 0 0 0 0 0.999548 5
1876 2 2.2 -7.8 0 0 0 0 1 5
1877 2 2.4 -7.8 0 0 0 0 1 5
1910 2 2.2 -7.6 0 0 0 0 1 5
1911 2 2.4 -7.6 0 0 0 0 1 5
1944 2 2.2 -7.4 0 0 0 0 1.00039 5
1945 2 2.4 -7.4 0 0 0 0 1.00071 5
1878 2 2.6 -7.8 0 0 0 0 1 5
1879 2 2.8 -7.8 0 0 0 0 1 5
1912 2 2.6 -7.6 0 0 0 0 1 5
1913 2 2.8 -7.6 0 0 0 0 1 5
1946 2 2.6 -7.4 0 0 0 0 0.994367 5
1947 2 2.8 -7.4 0 0 0 0 1.0001 5
1880 2 3 -7.8 0 0 0 0 1 5
1914 2 3 -7.6 0 0 0 0 1 5
1948 2 3 -7.4 0 0 0 0 1.00556 5
1881 2 3.2 -7.8 0 0 0 0 1 5
1915 2 3.2 -7.6 0 0 0 0 1 5
1949 2 3.2 -7.4 0 0 0 0 0.999079 5
1882 2 3.4 -7.8 0 0 0 0 1 5
1916 2 3.4 -7.6 0 0 0 0 1 5
1950 2 3.4 -7.4 0 0 0 0 0.999429 5
1883 2 3.6 -7.8 0 0 0 0 1 5
1917 2 3.6 -7.6 0 0 0 0 1 5
1951 2 3.6 -7.4 0 0 0 0 0.999539 5
1884 2 3.8 -7.8 0 0 0 0 1 5
1918 2 3.8 -7.6 0 0 0 0 1 5
1952 2 3.8 -7.4 0 0 0 0 1.01124 5
1885 2 4 -7.8 0 0 0 0 1 5
1886 2 4.2 -7.8 0 0 0 0 1 5
1919 2 4 -7.6 0 0 0 0 1 5
1920 2 4.2 -7.6 0 0 0 0 1 5
1953 2 4 -7.4 0 0 0 0 1.03226 5
1954 2 4.2 -7.4 0 0 0 0 1.03591 5
1887 2 4.4 -7.8 0 0 0 0 1 5
1888 2 4.6 -7.8 0 0 0 0 1 5
1921 2 4.4 -7.6 0 0 0 0 1 5
1922 2 4.6 -7.6 0 0 0 0 1 5
1955 2 4.4 -7.4 0 0 0 0 1.03519 5
1956 2 4.6 -7.4 0 0 0 0 1.03062 5
1889 2 4.8 -7.8 0 0 0 0 1 5
1890 2 5 -7.8 0 0 0 0 1 5
1923 2 4.8 -7.6 0 0 0 0 1 5
1924 2 5 -7.6 0 0 0 0 1 5
1957 2 4.8 -7.4 0 0 0 0 1.02984 5
1958 2 5 -7.4 0 0 0 0 1.02984 5
1891 2 5.2 -7.8 0 0 0 0 1 5
1892 2 5.4 -7.8 0 0 0 0 1 5
1925 2 5.2 -7.6 0 0 0 0 1 5
1926 2 5.4 -7.6 0 0 0 0 1 5
1959 2 5.2 -7.4 0 0 0 0 1.02978 5
1960 2 5.4 -7.4 0 0 0 0 1.02977 5
1893 2 5.6 -7.8 0 0 0 0 1 5
1927 2 5.6 -7.6 0 0 0 0 1 5
1961 2 5.6 -7.4 0 0 0 0 1.02977 5
1894 2 5.8 -7.8 0 0 0 0 1 5
1928 2 5.8 -7.6 0 0 0 0 1 5
1962 2 5.8 -7.4 0 0 0 0 1.02974 5
1895 2 6 -7.8 0 0 0 0 1 5
1929 2 6 -7.6 0 0 0 0 1 5
1963 2 6 -7.4 0 0 0 0 1.02966 5
1896 2 6.2 -7.8 0 0 0 0 1 5
1897 2 6.4 -7.8 0 0 0 0 1 5
1930 2 6.2 -7.6 0 0 0 0 1 5
1931 2 6.4 -7.6 0 0 0 0 1 5
1964 2 6.2 -7.4 0 0 0 0 1.02973 5
1965 2 6.4 -7.4 0 0 0 0 1.02978 5
1898 2 6.6 -7.8 0 0 0 0 1 5
1899 2 6.8 -7.8 0 0 0 0 1 5
1932 2 6.6 -7.6 0 0 0 0 1 5
1933 2 6.8 -7.6 0 0 0 0 1 5
1966 2 6.6 -7.4 0 0 0 0 1.02982 5
1967 2 6.8 -7.4 0 0 0 0 1.02981 5
1900 2 7 -7.8 0 0 0 0 1 5
1901 2 7.2 -7.8 0 0 0 0 1 5
1934 2 7 -7.6 0 0 0 0 1 5
1935 2 7.2 -7.6 0 0 0 0 1 5
1968 2 7 -7.4 0 0 0 0 1.0298 5
1969 2 7.2 -7.4 0 0 0 0 1.02989 5
1977 2 2 -7.2 0 0 0 0 1.0012 5
2011 2 2 -7 0 0 0 0 1.00143 5
1978 2 2.2 -7.2 0 0 0 0 0.999718 5
1979 2 2.4 -7.2 0 0 0 0 0.998983 5
2012 2 2.2 -7 0 0 0 0 0.999712 5
2013 2 2.4 -7 0 0 0 0 0.99924 5
1980 2 2.6 -7.2 0 0 0 0 0.998214 5
1981 2 2.8 -7.2 0 0 0 0 0.999831 5
2014 2 2.6 -7 0 0 0 0 0.999105 5
2015 2 2.8 -7 0 0 0 0 0.999901 5
1982 2 3 -7.2 0 0 0 0 1.00144 5
2016 2 3 -7 0 0 0 0 1.00065 5
1983 2 3.2 -7.2 0 0 0 0 1.00053 5
2017 2 3.2 -7 0 0 0 0 1.00034 5
1984 2 3.4 -7.2 0 0 0 0 0.999594 5
2018 2 3.4 -7 0 0 0 0 1.00002 5
1985 2 3.6 -7.2 0 0 0 0 1.00057 5
2019 2 3.6 -7 0 0 0 0 1.00142 5
1986 2 3.8 -7.2 0 0 0 0 1.00937 5
2020 2 3.8 -7 0 0 0 0 1.00886 5
1987 2 4 -7.2 0 0 0 0 1.02285 5
1988 2 4.2 -7.2 0 0 0 0 1.03337 5
2021 2 4 -7 0 0 0 0 1.02007 5
2022 2 4.2 -7 0 0 0 0 1.03163 5
1989 2 4.4 -7.2 0 0 0 0 1.03597 5
1990 2 4.6 -7.2 0 0 0 0 1.03151 5
2023 2 4.4 -7 0 0 0 0 1.03626 5
2024 2 4.6 -7 0 0 0 0 1.03232 5
1991 2 4.8 -7.2 0 0 0 0 1.03037 5
1992 2 5 -7.2 0 0 0 0 1.03043 5
2025 2 4.8 -7 0 0 0 0 1.03093 5
2026 2 5 -7 0 0 0 0 1.03099 5
1993 2 5.2 -7.2 0 0 0 0 1.03047 5
1994 2 5.4 -7.2 0 0 0 0 1.03041 5
2027 2 5.2 -7 0 0 0 0 1.03106 5
2028 2 5.4 -7 0 0 0 0 1.03096 5
1995 2 5.6 -7.2 0 0 0 0 1.03034 5
2029 2 5.6 -7 0 0 0 0 1.03082 5
1996 2 5.8 -7.2 0 0 0 0 1.03028 5
2030 2 5.8 -7 0 0 0 0 1.03074 5
1997 2 6 -7.2 0 0 0 0 1.03028 5
2031 2 6 -7 0 0 0 0 1.03077 5
1998 2 6.2 -7.2 0 0 0 0 1.03031 5
1999 2 6.4 -7.2 0 0 0 0 1.03031 5
2032 2 6.2 -7 0 0 0 0 1.03079 5
2033 2 6.4 -7 0 0 0 0 1.03075 5
2000 2 6.6 -7.2 0 0 0 0 1.03026 5
2001 2 6.8 -7.2 0 0 0 0 1.03024 5
2034 2 6.6 -7 0 0 0 0 1.03067 5
2035 2 6.8 -7 0 0 0 0 1.03065 5
2002 2 7 -7.2 0 0 0 0 1.03027 5
2003 2 7.2 -7.2 0 0 0 0 1.03031 5
2036 2 7 -7 0 0 0 0 1.03069 5
2037 2 7.2 -7 0 0 0 0 1.0307 5
13274 1 1.21144 -6.75162 0.02 0 0 0 1 2
13275 1 1.22433 -6.54926 0.02 0 -2.57042e-14 -3.42696e-15 1 2
13270 1 1.40221 -6.72835 0.02 0 -6.35683e-07 -2.79842e-07 1 2
13271 1 1.59112 -6.74203 0.02 0 -0.000191429 -8.95994e-05 1 2
13272 1 1.41682 -6.54477 0.02 0 -1.26684e-09 3.55159e-09 1 2
13273 1 1.61689 -6.5542 0.02 0 4.9472e-08 2.4108e-05 1 2
13276 1 1.78641 -6.74133 0.02 0 -0.00191392 -0.000665684 1 2
13277 1 1.9931 -6.75491 0.02 0 -0.00361498 -0.00075358 1 2
13278 1 1.82421 -6.56709 0.02 0 -3.34512e-05 0.000303493 1 2
13279 1 2.02813 -6.5739 0.02 0 -6.57083e-05 0.000511678 1 2
13280 1 2.20731 -6.74948 0.02 0 -0.0029595 -0.000552693 1 2
13281 1 2.41354 -6.75696 0.02 0 -0.0031467 -0.000434501 1 2
13282 1 2.22288 -6.56093 0.02 0 0.000119276 0.00043003 1 2
13283 1 2.41661 -6.56947 0.02 0 0.000109431 0.000376563 1 2
13284 1 2.61234 -6.72978 0.02 0 -0.00218658 -0.000347926 1 2
13285 1 2.80182 -6.73461 0.02 0 -0.00266617 -0.00038476 1 2
13286 1 2.61176 -6.54093 0.02 0 0.000206026 0.000334562 1 2
13287 1 2.80174 -6.53743 0.02 0 0.000216154 0.000368866 1 2
13288 1 2.98915 -6.72688 0.02 0 -0.00251219 -0.000442587 1 2
13289 1 3.18362 -6.75334 0.02 0 -0.00299301 -0.000455141 1 2
13290 1 3.16336 -6.55746 0.02 0 0.000260958 0.0004513 1 2
12935 1 3.34849 -6.5613 0.02 0 0.000206279 0.000470431 1 2
12934 1 3.39102 -6.74338 0.02 0 -0.00269596 -0.000462913 1 2
12936 1 3.59236 -6.74376 0.02 0 -0.00316879 -0.000300799 1 2
12938 1 3.54494 -6.55905 0.02 0 0.000110383 0.000523284 1 2
12939 1 3.74944 -6.55789 0.02 0 -0.00134369 0.000631867 1 2
12937 1 3.78777 -6.73868 0.02 0 -0.00591645 6.61927e-05 1 2
12940 1 3.98341 -6.73962 0.02 0 -0.0124066 0.00184971 1 2
12942 1 3.95378 -6.54776 0.02 0 -0.00546158 0.00105356 1 2
12943 1 3.99997 -6.54943 0.02 0 -0.00663613 0.00133087 1.02446 2
12941 1 4.09084 -6.66832 0.00914575 0.00225636 0.000175845 -0.000143689 1.03447 0
12944 1 4.04048 -6.78046 0.00568669 0.000219043 2.09506e-05 -4.68638e-05 1.03408 0
12946 1 4.26875 -6.44751 0.0104679 0.00316062 0.000105647 -9.8012e-06 1.03912 0
12947 1 4.20226 -6.57662 0.00942899 0.00260106 0.000177118 -5.55011e-05 1.03969 0
12945 1 4.34324 -6.63093 0.00840507 0.00146395 2.48374e-05 -1.28103e-05 1.0367 0
12949 1 4.20421 -6.79388 0.00318087 -0.000843345 2.44843e-05 -3.16664e-05 1.04351 0
12950 1 4.49166 -6.56955 0.0100519 0.00168698 -9.22812e-06 -2.28594e-06 1.03272 0
12953 1 4.4166 -6.76733 0.00514933 -6.30202e-05 -6.35843e-06 -7.45738e-06 1.03561 0
12601 1 4.61122 -6.6168 0.00836595 0.00114153 -6.04361e-06 -3.42979e-06 1.03125 0
12600 1 4.77538 -6.56831 0.00831524 0.00131923 -3.2801e-06 -1.52849e-06 1.031 0
12604 1 4.60552 -6.76861 0.00462426 0.000135976 -3.97828e-06 -3.38275e-06 1.03224 0
12609 1 4.76347 -6.74347 0.00441012 0.000193059 -1.08191e-06 -9.27176e-07 1.03161 0
12605 1 4.91526 -6.57635 0.00729304 0.00105455 -3.03043e-06 -3.91846e-07 1.03103 0
12612 1 5.06091 -6.60774 0.00592726 0.000705704 -3.91608e-06 5.55064e-07 1.03093 0
12617 1 4.91405 -6.76227 0.00331223 -8.43332e-05 -1.2669e-06 -5.31402e-08 1.03202 0
12132 1 5.22078 -6.59498 0.00559368 0.000596857 -5.35022e-06 1.23028e-06 1.03072 0
12288 1 5.08488 -6.76372 0.00280449 -0.000147531 -2.23249e-06 4.19004e-07 1.03187 0
12292 1 5.37216 -6.63731 0.00439905 0.000364249 -5.33533e-06 1.42933e-06 1.03056 0
11882 1 5.2586 -6.78431 0.00230375 -0.000288185 -2.95503e-06 8.59235e-07 1.0319 0
12295 1 5.54371 -6.61544 0.00440886 0.000338866 -6.10737e-06 1.60544e-06 1.03044 0
11544 1 5.46676 -6.78332 0.00207833 -0.000289707 -3.23934e-06 1.00831e-06 1.03168 0
11887 1 5.70926 -6.59864 0.00436461 0.000305276 -6.28462e-06 1.35247e-06 1.03039 0
11552 1 5.6579 -6.76661 0.00206193 -0.000252566 -3.42522e-06 9.63022e-07 1.03144 0
11891 1 5.86799 -6.59725 0.00412159 0.000254318 -5.69404e-06 7.95528e-07 1.03034 0
11894 1 6.03125 -6.57781 0.00417164 0.000240559 -5.18719e-06 -2.50398e-09 1.03028 0
11164 1 5.84164 -6.75325 0.00202346 -0.000209392 -3.10896e-06 5.68386e-07 1.03117 0
11323 1 6.00901 -6.79531 0.00155303 -0.000384543 -2.0665e-06 2.43686e-08 1.03153 0
11547 1 6.14327 -6.6369 0.00321664 0.000131439 -3.41464e-06 -5.84267e-07 1.0303 0
11172 1 6.28598 -6.63012 0.00316145 0.000120967 -2.74122e-06 -1.19179e-06 1.03027 0
10850 1 6.44456 -6.61001 0.00328188 0.000129292 -2.29457e-06 -1.82722e-06 1.03022 0
10507 1 6.25084 -6.80062 0.00139491 -0.000386286 -1.12908e-06 -9.89642e-07 1.0315 0
10519 1 6.4686 -6.77619 0.00149155 -0.000308024 -5.97989e-07 -1.46619e-06 1.03127 0
11556 1 6.60018 -6.60116 0.0032704 0.000122135 -1.93707e-06 -2.34316e-06 1.0302 0
10857 1 6.75901 -6.58812 0.00332591 0.000124075 -1.94581e-06 -2.76129e-06 1.03017 0
10189 1 6.65761 -6.7643 0.00151039 -0.000295257 -2.88412e-07 -1.71947e-06 1.03118 0
11322 1 6.91431 -6.59668 0.00314538 0.000110932 -2.08993e-06 -2.84945e-06 1.03017 0
3109 1 6.83366 -6.76485 0.00144312 -0.000303358 -2.11322e-07 -1.80711e-06 1.03118 0
10846 1 7.06188 -6.58382 0.00323083 0.000111632 -2.72535e-06 -2.89441e-06 1.03016 0
3113 1 7.01225 -6.77418 0.00134329 -0.000337059 -4.65743e-07 -1.67921e-06 1.03128 0
10862 1 7.20249 -6.59562 0.00304348 9.75948e-05 -3.24057e-06 -2.63139e-06 1.03018 0
12773 1 4.68224 -0.35605 0.0143116 0.00110295 9.35175e-06 7.98581e-06 1.03055 0
3116 1 7.2001 -6.76642 0.00137411 -0.000305936 -1.06035e-06 -1.53782e-06 1.03121 0
13296 1 1.22579 -6.35803 0.02 0 0 0 1 2
13291 1 1.43468 -6.35816 0.02 0 1.47169e-10 1.08585e-09 1 2
13293 1 1.42668 -6.16827 0.02 0 9.37756e-13 1.22143e-11 1 2
13295 1 1.22798 -6.16727 0.02 0 0 0 1 2
13294 1 1.63092 -6.1805 0.02 0 5.526e-09 8.3201e-08 1 2
13292 1 1.63776 -6.36705 0.02 0 6.43733e-07 4.9573e-06 1 2
13297 1 1.83644 -6.38798 0.02 0 1.15508e-05 6.1987e-05 1 2
13298 1 2.03881 -6.38895 0.02 0 5.09628e-05 0.000123669 1 2
13299 1 1.84721 -6.20569 0.02 0 3.74165e-07 3.36228e-06 1 2
13300 1 2.06159 -6.20353 0.02 0 3.07413e-06 1.13088e-05 1 2
13301 1 2.24166 -6.36843 0.02 0 8.31547e-05 0.000139784 1 2
13302 1 2.43781 -6.37843 0.02 0 9.93805e-05 0.000147939 1 2
13303 1 2.26281 -6.17307 0.02 0 4.54993e-06 1.1683e-05 1 2
13304 1 2.45694 -6.18053 0.02 0 5.62357e-06 1.32453e-05 1 2
13305 1 2.63042 -6.34191 0.02 0 6.22226e-05 9.6927e-05 1 2
13306 1 2.81758 -6.33104 0.02 0 5.37274e-05 8.69785e-05 1 2
13307 1 2.64542 -6.1381 0.02 0 2.13917e-06 5.62958e-06 1 2
13308 1 2.83513 -6.12121 0.02 0 1.52199e-06 4.08987e-06 1 2
12955 1 3.20427 -6.14001 0.02 0 2.40919e-06 6.22816e-06 1 2
13309 1 2.98518 -6.52057 0.02 0 0.000245955 0.000367442 1 2
13310 1 3.0025 -6.30892 0.02 0 3.95707e-05 6.48775e-05 1 2
13311 1 3.18519 -6.35291 0.02 0 6.7567e-05 0.000104298 1 2
13312 1 3.0236 -6.10264 0.02 0 1.06469e-06 2.96855e-06 1 2
12954 1 3.38099 -6.37302 0.02 0 8.80078e-05 0.000127502 1 2
12956 1 3.38328 -6.17699 0.02 0 5.10565e-06 1.19633e-05 1 2
12957 1 3.58614 -6.37279 0.02 0 -0.000139149 0.000142251 1 2
12959 1 3.57108 -6.17854 0.02 0 -0.000145238 2.14984e-05 1 2
12960 1 3.76489 -6.17868 0.02 0 -0.00175833 4.40555e-06 1 2
12958 1 3.78711 -6.37301 0.02 0 -0.00185793 0.000104946 1 2
12961 1 3.97955 -6.34968 0.02 0 -0.00593781 0.000438601 1 2
12963 1 3.96258 -6.15582 0.02 0 -0.00615721 0.000254761 1 2
12962 1 4.13614 -6.38815 0.0111779 0.00242448 0.000311567 -1.07141e-05 1.03682 0
12964 1 4.04219 -6.18802 0.0115585 0.000610002 6.26057e-05 1.95707e-06 1.0272 0
12948 1 4.416 -6.44423 0.011902 0.00268449 8.26736e-06 -2.86941e-06 1.03464 0
12965 1 3.99984 -6.35665 0.02 0 -0.00640641 0.000683108 1.02172 2
12967 1 4.23335 -6.15597 0.00989204 0.00264865 3.77084e-05 -7.34958e-06 1.03676 0
12966 1 4.26854 -6.28416 0.0104828 0.00334671 6.24486e-05 1.34778e-05 1.03783 0
12968 1 4.23184 -6.03171 0.0104878 0.00207026 5.67742e-05 -4.05791e-05 1.03599 0
12970 1 4.42153 -6.11925 0.0132167 0.00336083 2.79498e-06 -7.68798e-06 1.03286 0
12974 1 4.43449 -6.28255 0.0129286 0.00327913 -1.97421e-06 -4.07112e-06 1.03341 0
12951 1 4.57902 -6.37743 0.0122878 0.0027246 -1.14e-05 -5.45423e-06 1.03172 0
12952 1 4.70171 -6.44534 0.0108326 0.00210453 -6.85279e-06 -2.8723e-06 1.03129 0
12602 1 4.81719 -6.32388 0.0115013 0.00247107 -4.58734e-06 -1.37863e-06 1.03144 0
12969 1 4.57726 -6.19625 0.0134214 0.00336928 -4.69921e-06 -4.26756e-06 1.03141 0
12971 1 4.7164 -6.20961 0.0129177 0.00312043 -3.39802e-06 -2.14747e-06 1.03133 0
12972 1 4.58695 -6.02454 0.0139744 0.00359248 2.47838e-06 -8.77798e-07 1.03113 0
12973 1 4.74043 -6.00976 0.0137385 0.00362244 -5.92084e-07 1.13115e-06 1.03119 0
12603 1 4.93415 -6.39668 0.0100099 0.00186405 -5.12504e-06 -3.46914e-07 1.03141 0
12619 1 4.8554 -6.1379 0.0127483 0.00312385 -3.84864e-06 -1.0907e-08 1.03149 0
12608 1 5.08332 -6.45101 0.00852314 0.00133562 -6.40886e-06 7.38531e-07 1.03119 0
12620 1 4.99483 -6.16441 0.011984 0.00270833 -6.47006e-06 4.43236e-07 1.03155 0
12606 1 5.08034 -6.28637 0.0105458 0.0020082 -7.66076e-06 7.75045e-07 1.03144 0
12623 1 5.16274 -6.10245 0.0118123 0.00255021 -9.49639e-06 1.11211e-06 1.03135 0
12607 1 5.24001 -6.2521 0.0102472 0.00181066 -9.72942e-06 1.36937e-06 1.03124 0
12610 1 5.34697 -6.12538 0.0110133 0.00207 -1.16938e-05 1.15012e-06 1.03112 0
12611 1 5.24359 -6.42038 0.00827621 0.00119632 -8.13467e-06 1.46727e-06 1.03101 0
12616 1 5.39598 -6.47947 0.00692675 0.000819605 -8.13968e-06 1.76983e-06 1.03068 0
12613 1 5.40311 -6.30641 0.00907806 0.00134089 -1.04249e-05 1.59085e-06 1.03098 0
12614 1 5.50331 -6.12617 0.0105063 0.00176994 -1.27973e-05 7.75524e-07 1.03097 0
12135 1 5.55737 -6.4498 0.00685277 0.000751592 -8.96491e-06 1.69107e-06 1.0306 0
12615 1 5.56766 -6.28415 0.00878555 0.00118092 -1.12156e-05 1.28152e-06 1.03085 0
12631 1 5.65547 -6.08785 0.0103822 0.00163423 -1.35996e-05 -1.13251e-07 1.03088 0
12618 1 5.808 -6.04735 0.0103158 0.00151356 -1.38979e-05 -1.14777e-06 1.03081 0
12133 1 5.7237 -6.24447 0.00874954 0.00109372 -1.16605e-05 4.886e-07 1.03079 0
12136 1 5.72152 -6.43604 0.00660029 0.000646328 -9.00614e-06 1.21382e-06 1.03053 0
12134 1 5.90737 -6.17292 0.00897955 0.00105923 -1.19247e-05 -9.00824e-07 1.03076 0
12287 1 5.86016 -6.32937 0.00750861 0.000756121 -1.00424e-05 1.82272e-07 1.03064 0
12138 1 6.04931 -6.2422 0.00799922 0.000771843 -1.01726e-05 -1.36652e-06 1.03067 0
12291 1 5.93639 -6.44736 0.00599856 0.000484125 -7.88809e-06 2.18514e-07 1.03043 0
12296 1 6.09929 -6.4076 0.00615768 0.000461212 -7.44339e-06 -9.01937e-07 1.03045 0
12290 1 6.21987 -6.21747 0.00791525 0.000683916 -9.35974e-06 -2.54347e-06 1.03064 0
11880 1 6.24828 -6.37358 0.00628128 0.000438851 -6.93949e-06 -1.97001e-06 1.03046 0
12294 1 6.38512 -6.15476 0.00822707 0.000665371 -9.11775e-06 -3.67824e-06 1.03063 0
11895 1 6.33877 -6.47824 0.00500194 0.00029493 -4.78858e-06 -1.97302e-06 1.03027 0
12297 1 6.54725 -6.11423 0.00835713 0.00060955 -8.72969e-06 -4.44623e-06 1.03061 0
11881 1 6.43515 -6.29815 0.00677993 0.000444092 -6.89209e-06 -3.25557e-06 1.03051 0
11890 1 6.51278 -6.43395 0.00527609 0.000285837 -4.5723e-06 -2.92636e-06 1.03029 0
11886 1 6.62546 -6.25495 0.0069566 0.000400506 -6.70701e-06 -4.10376e-06 1.0305 0
11559 1 6.67484 -6.42849 0.00516274 0.000249041 -4.22373e-06 -3.46252e-06 1.03026 0
11883 1 6.84166 -6.13291 0.00784932 0.000410047 -7.76115e-06 -4.89005e-06 1.03055 0
11893 1 6.79215 -6.28316 0.00650654 0.000309765 -6.09629e-06 -4.31591e-06 1.03044 0
11888 1 7.01077 -6.09772 0.00801207 0.00035485 -8.1461e-06 -4.95292e-06 1.03054 0
11898 1 6.98556 -6.26118 0.00655338 0.000259396 -6.59285e-06 -4.44721e-06 1.03044 0
11551 1 6.85875 -6.42822 0.00501135 0.000211697 -4.24716e-06 -3.74529e-06 1.03024 0
11560 1 7.03062 -6.41556 0.00502294 0.000188177 -4.88829e-06 -3.7994e-06 1.03024 0
11899 1 7.16586 -6.24117 0.00662489 0.000212218 -7.43724e-06 -4.24696e-06 1.03044 0
11896 1 7.32763 -6.08026 0.0079794 0.000216549 -9.20112e-06 -4.29934e-06 1.03052 0
11162 1 7.19964 -6.41014 0.00498938 0.000162931 -5.76063e-06 -3.55331e-06 1.03024 0
12778 1 4.21115 -0.349298 0.0108259 0.00132433 -0.000259726 -4.69391e-06 1.03409 0
12437 1 5.28899 -0.0481803 0.0143569 0.000789112 8.27913e-06 1.42778e-05 1.03111 0
13317 1 1.22715 -5.9733 0.02 0 0 0 1 2
13313 1 1.42866 -5.97613 0.02 0 0 0 1 2
13315 1 1.48089 -5.79188 0.02 0 0 0 1 2
13316 1 1.26848 -5.78448 0.02 0 0 0 1 2
13314 1 1.63268 -5.99115 0.02 0 9.83022e-12 3.6596e-10 1 2
13318 1 1.68848 -5.80453 0.02 0 0 0 1 2
13319 1 1.8342 -6.02123 0.02 0 1.05336e-09 1.8268e-08 1 2
13320 1 2.04081 -6.01537 0.02 0 2.27809e-08 9.12685e-08 1 2
13321 1 1.88893 -5.83465 0.02 0 1.19177e-11 1.2745e-10 1 2
13322 1 2.09022 -5.817 0.02 0 3.50446e-11 3.29684e-10 1 2
13323 1 2.24404 -5.97957 0.02 0 1.93136e-08 6.11778e-08 1 2
13324 1 2.44807 -5.98166 0.02 0 1.62576e-08 5.92147e-08 1 2
13325 1 2.29129 -5.78216 0.02 0 5.09796e-12 3.89285e-11 1 2
13326 1 2.48724 -5.78539 0.02 0 8.55561e-12 5.96256e-11 1 2
13327 1 2.65592 -5.94042 0.02 0 3.72444e-09 1.5973e-08 1 2
13328 1 2.85564 -5.91506 0.02 0 4.89825e-10 3.50468e-09 1 2
13329 1 2.67862 -5.73581 0.02 0 6.99938e-14 9.06492e-13 1 2
13330 1 2.86735 -5.70885 0.02 0 7.93591e-15 8.52387e-14 1 2
12975 1 3.2393 -5.9255 0.02 0 1.10035e-09 5.04949e-09 1 2
12976 1 3.24518 -5.71264 0.02 0 3.27249e-14 3.4881e-13 1 2
13331 1 3.05143 -5.90074 0.02 0 3.41659e-10 2.93087e-09 1 2
13332 1 3.05656 -5.69517 0.02 0 2.20516e-16 8.24792e-16 1 2
12977 1 3.42005 -5.97061 0.02 0 -1.79029e-06 -3.39247e-07 1 2
12978 1 3.4297 -5.7563 0.02 0 -6.01794e-06 3.81186e-08 1 2
12979 1 3.60843 -5.98028 0.02 0 -0.000299785 -2.82114e-05 1 2
12981 1 3.6212 -5.77886 0.02 0 -0.000431962 -1.55909e-05 1 2
12980 1 3.79762 -5.97288 0.02 0 -0.00215704 -5.46268e-05 1 2
12982 1 3.81915 -5.76461 0.02 0 -0.00251151 -0.000234958 1 2
12983 1 3.99175 -5.96398 0.02 0 -0.00604978 0.000486927 1 2
12985 1 3.99985 -5.76933 0.02 0 -0.00372436 -8.728e-05 1.01534 2
12984 1 4.07345 -6.02453 0.0113216 0.00015712 6.50946e-05 -7.83059e-05 1.02903 0
12986 1 4.16191 -5.78368 0.0124571 0.000831632 -0.000169849 0.00014772 1.03444 0
12987 1 4.27483 -5.89124 0.0119135 0.00194858 3.95315e-05 1.33783e-05 1.03557 0
12989 1 4.00013 -5.8628 0.0185972 -4.47305e-05 -0.00561116 -0.000178922 1.02133 0
12988 1 4.42916 -5.96488 0.0136861 0.00324835 1.7354e-05 -4.76356e-06 1.03247 0
12990 1 4.35097 -5.71082 0.0136839 0.00264599 -1.25085e-05 2.18343e-05 1.03367 0
12993 1 4.54949 -5.67812 0.0145901 0.00376875 1.18898e-05 1.02998e-05 1.03081 0
12992 1 4.46179 -5.81642 0.0142943 0.00333049 1.4951e-05 5.29404e-06 1.03187 0
12621 1 4.90423 -5.97043 0.013384 0.00354157 -4.22211e-06 1.62426e-06 1.0314 0
12991 1 4.62553 -5.85535 0.0143579 0.00378135 6.27468e-06 3.91157e-06 1.03091 0
12994 1 4.706 -5.68593 0.0144503 0.00406451 2.11266e-06 8.26521e-06 1.03074 0
12637 1 4.79507 -5.83507 0.0140811 0.00391484 -1.04441e-06 4.23913e-06 1.0311 0
12638 1 4.97938 -5.81541 0.0137028 0.00378523 -6.55114e-06 2.81822e-06 1.03128 0
12641 1 4.88086 -5.67637 0.0141548 0.00410652 -5.31934e-06 5.77981e-06 1.03106 0
12622 1 5.06326 -5.97943 0.0128671 0.00320771 -7.8483e-06 1.34174e-06 1.03139 0
12624 1 5.25897 -5.96311 0.0124066 0.00281927 -1.17374e-05 9.09205e-07 1.03115 0
12625 1 5.14823 -5.82246 0.0133367 0.00345441 -1.06243e-05 1.42142e-06 1.03118 0
12639 1 5.05405 -5.65901 0.0139283 0.00394036 -1.01248e-05 2.93077e-06 1.03112 0
12643 1 5.21531 -5.63766 0.0137955 0.0036812 -1.40114e-05 5.23842e-07 1.031 0
12629 1 5.30965 -5.79351 0.0131244 0.00317229 -1.3849e-05 1.21086e-07 1.03101 0
12644 1 5.37444 -5.62047 0.0136421 0.00338869 -1.65646e-05 -1.54293e-06 1.03089 0
12628 1 5.42436 -5.95848 0.011981 0.00247262 -1.38095e-05 2.12857e-07 1.03099 0
12627 1 5.585 -5.93196 0.0117283 0.00222646 -1.50873e-05 -7.94871e-07 1.03088 0
12626 1 5.46946 -5.78234 0.0128441 0.00285544 -1.58217e-05 -1.18187e-06 1.0309 0
12647 1 5.53932 -5.60435 0.0134658 0.00307754 -1.79577e-05 -3.21626e-06 1.03084 0
12630 1 5.63154 -5.75566 0.0126463 0.00258182 -1.68945e-05 -2.46469e-06 1.03084 0
12632 1 5.75201 -5.89413 0.0115758 0.00201587 -1.56561e-05 -1.98469e-06 1.03082 0
12633 1 5.79389 -5.71997 0.0125264 0.0023413 -1.71336e-05 -3.62861e-06 1.0308 0
12137 1 6.12118 -6.06938 0.00944306 0.00105726 -1.19908e-05 -2.75368e-06 1.03072 0
12139 1 5.97349 -6.00996 0.0102363 0.00137563 -1.36186e-05 -2.33031e-06 1.03076 0
12634 1 5.95371 -5.67324 0.0125053 0.0021389 -1.67434e-05 -4.65216e-06 1.03077 0
12635 1 5.92274 -5.85042 0.0115015 0.00182776 -1.55498e-05 -3.15255e-06 1.03077 0
12140 1 6.09959 -5.72115 0.0120001 0.00180084 -1.54339e-05 -4.75548e-06 1.03074 0
12141 1 6.10221 -5.88493 0.0109208 0.00147779 -1.41465e-05 -3.70529e-06 1.03073 0
12289 1 6.28263 -6.03579 0.00943131 0.000957835 -1.12567e-05 -3.73808e-06 1.03068 0
12143 1 6.27 -5.87908 0.010674 0.00126839 -1.29394e-05 -4.40911e-06 1.03069 0
12142 1 6.27832 -5.71796 0.0117508 0.00153489 -1.39927e-05 -5.26567e-06 1.0307 0
12303 1 6.4407 -5.79233 0.0110353 0.00120117 -1.22346e-05 -5.29625e-06 1.03066 0
12302 1 6.56679 -5.62448 0.0119647 0.001269 -1.19435e-05 -6.10053e-06 1.03067 0
12293 1 6.61395 -5.93451 0.00976316 0.000810627 -1.01284e-05 -5.19505e-06 1.03062 0
12299 1 6.44755 -5.96284 0.00976285 0.000924705 -1.08908e-05 -4.66877e-06 1.03065 0
12300 1 6.61868 -5.77613 0.0109243 0.00101794 -1.10385e-05 -5.67272e-06 1.03064 0
12298 1 6.71355 -6.05906 0.00862789 0.000566433 -8.66438e-06 -5.00799e-06 1.03059 0
12306 1 6.78813 -5.8748 0.0100252 0.00073186 -9.71037e-06 -5.58478e-06 1.0306 0
12305 1 6.79149 -5.7167 0.0111511 0.000900474 -1.02586e-05 -5.97904e-06 1.03062 0
12307 1 6.94519 -5.64245 0.0115113 0.000807718 -9.72102e-06 -6.1214e-06 1.03061 0
11902 1 6.9166 -5.95994 0.00923721 0.000536365 -8.97102e-06 -5.39332e-06 1.03057 0
12309 1 6.98812 -5.79306 0.0104509 0.00063961 -9.43967e-06 -5.76459e-06 1.03058 0