ITEM: TIMESTEP
32000
ITEM: NUMBER OF ATOMS
11452
ITEM: BOX BOUNDS ff ff pp
0.0000000000000000e+00 2.2000000000000000e+01
-1.0000000000000000e+01 1.0000000000000000e+01
-2.0000000000000000e-02 2.0000000000000000e-02
ITEM: ATOMS id type x y vx vy fx fy c_den c_phase
1501 2 2 -10 0 0 0 0 1 5
1535 2 2 -9.8 0 0 0 0 1 5
1569 2 2 -9.6 0 0 0 0 1 5
1502 2 2.2 -10 0 0 0 0 1 5
1503 2 2.4 -10 0 0 0 0 1 5
1536 2 2.2 -9.8 0 0 0 0 1 5
1537 2 2.4 -9.8 0 0 0 0 1 5
1570 2 2.2 -9.6 0 0 0 0 1 5
1571 2 2.4 -9.6 0 0 0 0 1 5
1504 2 2.6 -10 0 0 0 0 1 5
1505 2 2.8 -10 0 0 0 0 1 5
1538 2 2.6 -9.8 0 0 0 0 1 5
1539 2 2.8 -9.8 0 0 0 0 1 5
1572 2 2.6 -9.6 0 0 0 0 1 5
1573 2 2.8 -9.6 0 0 0 0 1 5
1506 2 3 -10 0 0 0 0 1 5
1540 2 3 -9.8 0 0 0 0 1 5
1574 2 3 -9.6 0 0 0 0 1 5
1507 2 3.2 -10 0 0 0 0 1 5
1541 2 3.2 -9.8 0 0 0 0 1 5
1575 2 3.2 -9.6 0 0 0 0 1 5
1508 2 3.4 -10 0 0 0 0 1 5
1542 2 3.4 -9.8 0 0 0 0 1 5
1576 2 3.4 -9.6 0 0 0 0 1 5
1509 2 3.6 -10 0 0 0 0 1 5
1543 2 3.6 -9.8 0 0 0 0 1 5
1577 2 3.6 -9.6 0 0 0 0 1 5
1510 2 3.8 -10 0 0 0 0 1 5
1544 2 3.8 -9.8 0 0 0 0 1 5
1578 2 3.8 -9.6 0 0 0 0 1 5
1511 2 4 -10 0 0 0 0 1 5
1512 2 4.2 -10 0 0 0 0 1 5
1545 2 4 -9.8 0 0 0 0 1 5
1546 2 4.2 -9.8 0 0 0 0 1 5
1579 2 4 -9.6 0 0 0 0 1 5
1580 2 4.2 -9.6 0 0 0 0 1 5
1513 2 4.4 -10 0 0 0 0 1 5
1514 2 4.6 -10 0 0 0 0 1 5
1547 2 4.4 -9.8 0 0 0 0 1 5
1548 2 4.6 -9.8 0 0 0 0 1 5
1581 2 4.4 -9.6 0 0 0 0 1 5
1582 2 4.6 -9.6 0 0 0 0 1 5
1515 2 4.8 -10 0 0 0 0 1 5
1516 2 5 -10 0 0 0 0 1 5
1549 2 4.8 -9.8 0 0 0 0 1 5
1550 2 5 -9.8 0 0 0 0 1 5
1583 2 4.8 -9.6 0 0 0 0 1 5
1584 2 5 -9.6 0 0 0 0 1 5
1517 2 5.2 -10 0 0 0 0 1 5
1518 2 5.4 -10 0 0 0 0 1 5
1551 2 5.2 -9.8 0 0 0 0 1 5
1552 2 5.4 -9.8 0 0 0 0 1 5
1585 2 5.2 -9.6 0 0 0 0 1 5
1586 2 5.4 -9.6 0 0 0 0 1 5
1519 2 5.6 -10 0 0 0 0 1 5
1553 2 5.6 -9.8 0 0 0 0 1 5
1587 2 5.6 -9.6 0 0 0 0 1 5
1520 2 5.8 -10 0 0 0 0 1 5
1554 2 5.8 -9.8 0 0 0 0 1 5
1588 2 5.8 -9.6 0 0 0 0 1 5
1521 2 6 -10 0 0 0 0 1 5
1555 2 6 -9.8 0 0 0 0 1 5
1589 2 6 -9.6 0 0 0 0 1 5
1522 2 6.2 -10 0 0 0 0 1 5
1523 2 6.4 -10 0 0 0 0 1 5
1556 2 6.2 -9.8 0 0 0 0 1 5
1557 2 6.4 -9.8 0 0 0 0 1 5
1590 2 6.2 -9.6 0 0 0 0 1 5
1591 2 6.4 -9.6 0 0 0 0 1 5
1524 2 6.6 -10 0 0 0 0 1 5
1525 2 6.8 -10 0 0 0 0 1 5
1558 2 6.6 -9.8 0 0 0 0 1 5
1559 2 6.8 -9.8 0 0 0 0 1 5
1592 2 6.6 -9.6 0 0 0 0 1 5
1593 2 6.8 -9.6 0 0 0 0 1 5
1526 2 7 -10 0 0 0 0 1 5
1527 2 7.2 -10 0 0 0 0 1 5
1560 2 7 -9.8 0 0 0 0 1 5
1561 2 7.2 -9.8 0 0 0 0 1 5
1594 2 7 -9.6 0 0 0 0 1 5
1595 2 7.2 -9.6 0 0 0 0 1 5
1603 2 2 -9.4 0 0 0 0 1 5
1637 2 2 -9.2 0 0 0 0 1 5
1604 2 2.2 -9.4 0 0 0 0 1 5
1605 2 2.4 -9.4 0 0 0 0 1 5
1638 2 2.2 -9.2 0 0 0 0 1 5
1639 2 2.4 -9.2 0 0 0 0 1 5
1606 2 2.6 -9.4 0 0 0 0 1 5
1607 2 2.8 -9.4 0 0 0 0 1 5
1640 2 2.6 -9.2 0 0 0 0 1 5
1641 2 2.8 -9.2 0 0 0 0 1 5
1608 2 3 -9.4 0 0 0 0 1 5
1642 2 3 -9.2 0 0 0 0 1 5
1609 2 3.2 -9.4 0 0 0 0 1 5
1643 2 3.2 -9.2 0 0 0 0 1 5
1610 2 3.4 -9.4 0 0 0 0 1 5
1644 2 3.4 -9.2 0 0 0 0 1 5
1611 2 3.6 -9.4 0 0 0 0 1 5
1645 2 3.6 -9.2 0 0 0 0 1 5
1612 2 3.8 -9.4 0 0 0 0 1 5
1646 2 3.8 -9.2 0 0 0 0 1 5
1613 2 4 -9.4 0 0 0 0 1 5
1614 2 4.2 -9.4 0 0 0 0 1 5
1647 2 4 -9.2 0 0 0 0 1 5
1648 2 4.2 -9.2 0 0 0 0 1 5
1615 2 4.4 -9.4 0 0 0 0 1 5
1616 2 4.6 -9.4 0 0 0 0 1 5
1649 2 4.4 -9.2 0 0 0 0 1 5
1650 2 4.6 -9.2 0 0 0 0 1 5
1617 2 4.8 -9.4 0 0 0 0 1 5
1618 2 5 -9.4 0 0 0 0 1 5
1651 2 4.8 -9.2 0 0 0 0 1 5
1652 2 5 -9.2 0 0 0 0 1 5
1619 2 5.2 -9.4 0 0 0 0 1 5
1620 2 5.4 -9.4 0 0 0 0 1 5
1653 2 5.2 -9.2 0 0 0 0 1 5
1654 2 5.4 -9.2 0 0 0 0 1 5
1621 2 5.6 -9.4 0 0 0 0 1 5
1655 2 5.6 -9.2 0 0 0 0 1 5
1622 2 5.8 -9.4 0 0 0 0 1 5
1656 2 5.8 -9.2 0 0 0 0 1 5
1623 2 6 -9.4 0 0 0 0 1 5
1657 2 6 -9.2 0 0 0 0 1 5
1624 2 6.2 -9.4 0 0 0 0 1 5
1625 2 6.4 -9.4 0 0 0 0 1 5
1658 2 6.2 -9.2 0 0 0 0 1 5
1659 2 6.4 -9.2 0 0 0 0 1 5
1626 2 6.6 -9.4 0 0 0 0 1 5
1627 2 6.8 -9.4 0 0 0 0 1 5
1660 2 6.6 -9.2 0 0 0 0 1 5
1661 2 6.8 -9.2 0 0 0 0 1 5
1628 2 7 -9.4 0 0 0 0 1 5
1629 2 7.2 -9.4 0 0 0 0 1 5
1662 2 7 -9.2 0 0 0 0 1 5
1663 2 7.2 -9.2 0 0 0 0 1 5
1671 2 2 -9 0 0 0 0 1 5
1705 2 2 -8.8 0 0 0 0 1 5
1672 2 2.2 -9 0 0 0 0 1 5
1673 2 2.4 -9 0 0 0 0 1 5
1706 2 2.2 -8.8 0 0 0 0 1 5
1707 2 2.4 -8.8 0 0 0 0 1 5
1674 2 2.6 -9 0 0 0 0 1 5
1675 2 2.8 -9 0 0 0 0 1 5
1708 2 2.6 -8.8 0 0 0 0 1 5
1709 2 2.8 -8.8 0 0 0 0 1 5
1676 2 3 -9 0 0 0 0 1 5
1710 2 3 -8.8 0 0 0 0 1 5
1677 2 3.2 -9 0 0 0 0 1 5
1711 2 3.2 -8.8 0 0 0 0 1 5
1678 2 3.4 -9 0 0 0 0 1 5
1712 2 3.4 -8.8 0 0 0 0 1 5
1679 2 3.6 -9 0 0 0 0 1 5
1713 2 3.6 -8.8 0 0 0 0 1 5
1680 2 3.8 -9 0 0 0 0 1 5
1714 2 3.8 -8.8 0 0 0 0 1 5
1681 2 4 -9 0 0 0 0 1 5
1682 2 4.2 -9 0 0 0 0 1 5
1715 2 4 -8.8 0 0 0 0 1 5
1716 2 4.2 -8.8 0 0 0 0 1 5
1683 2 4.4 -9 0 0 0 0 1 5
1684 2 4.6 -9 0 0 0 0 1 5
1717 2 4.4 -8.8 0 0 0 0 1 5
1718 2 4.6 -8.8 0 0 0 0 1 5
1685 2 4.8 -9 0 0 0 0 1 5
1686 2 5 -9 0 0 0 0 1 5
1719 2 4.8 -8.8 0 0 0 0 1 5
1720 2 5 -8.8 0 0 0 0 1 5
1687 2 5.2 -9 0 0 0 0 1 5
1688 2 5.4 -9 0 0 0 0 1 5
1721 2 5.2 -8.8 0 0 0 0 1 5
1722 2 5.4 -8.8 0 0 0 0 1 5
1689 2 5.6 -9 0 0 0 0 1 5
1723 2 5.6 -8.8 0 0 0 0 1 5
1690 2 5.8 -9 0 0 0 0 1 5
1724 2 5.8 -8.8 0 0 0 0 1 5
1691 2 6 -9 0 0 0 0 1 5
1725 2 6 -8.8 0 0 0 0 1 5
1692 2 6.2 -9 0 0 0 0 1 5
1693 2 6.4 -9 0 0 0 0 1 5
1726 2 6.2 -8.8 0 0 0 0 1 5
1727 2 6.4 -8.8 0 0 0 0 1 5
1694 2 6.6 -9 0 0 0 0 1 5
1695 2 6.8 -9 0 0 0 0 1 5
1728 2 6.6 -8.8 0 0 0 0 1 5
1729 2 6.8 -8.8 0 0 0 0 1 5
1696 2 7 -9 0 0 0 0 1 5
1697 2 7.2 -9 0 0 0 0 1 5
1730 2 7 -8.8 0 0 0 0 1 5
1731 2 7.2 -8.8 0 0 0 0 1 5
1739 2 2 -8.6 0 0 0 0 1 5
1773 2 2 -8.4 0 0 0 0 1 5
1740 2 2.2 -8.6 0 0 0 0 1 5
1741 2 2.4 -8.6 0 0 0 0 1 5
1774 2 2.2 -8.4 0 0 0 0 1 5
1775 2 2.4 -8.4 0 0 0 0 1 5
1742 2 2.6 -8.6 0 0 0 0 1 5
1743 2 2.8 -8.6 0 0 0 0 1 5
1776 2 2.6 -8.4 0 0 0 0 1 5
1777 2 2.8 -8.4 0 0 0 0 1 5
1744 2 3 -8.6 0 0 0 0 1 5
1778 2 3 -8.4 0 0 0 0 1 5
1745 2 3.2 -8.6 0 0 0 0 1 5
1779 2 3.2 -8.4 0 0 0 0 1 5
1746 2 3.4 -8.6 0 0 0 0 1 5
1780 2 3.4 -8.4 0 0 0 0 1 5
1747 2 3.6 -8.6 0 0 0 0 1 5
1781 2 3.6 -8.4 0 0 0 0 1 5
1748 2 3.8 -8.6 0 0 0 0 1 5
1782 2 3.8 -8.4 0 0 0 0 1 5
1749 2 4 -8.6 0 0 0 0 1 5
1750 2 4.2 -8.6 0 0 0 0 1 5
1783 2 4 -8.4 0 0 0 0 1 5
1784 2 4.2 -8.4 0 0 0 0 1 5
1751 2 4.4 -8.6 0 0 0 0 1 5
1752 2 4.6 -8.6 0 0 0 0 1 5
1785 2 4.4 -8.4 0 0 0 0 1 5
1786 2 4.6 -8.4 0 0 0 0 1 5
1753 2 4.8 -8.6 0 0 0 0 1 5
1754 2 5 -8.6 0 0 0 0 1 5
1787 2 4.8 -8.4 0 0 0 0 1 5
1788 2 5 -8.4 0 0 0 0 1 5
1755 2 5.2 -8.6 0 0 0 0 1 5
1756 2 5.4 -8.6 0 0 0 0 1 5
1789 2 5.2 -8.4 0 0 0 0 1 5
1790 2 5.4 -8.4 0 0 0 0 1 5
1757 2 5.6 -8.6 0 0 0 0 1 5
1791 2 5.6 -8.4 0 0 0 0 1 5
1758 2 5.8 -8.6 0 0 0 0 1 5
1792 2 5.8 -8.4 0 0 0 0 1 5
1759 2 6 -8.6 0 0 0 0 1 5
1793 2 6 -8.4 0 0 0 0 1 5
1760 2 6.2 -8.6 0 0 0 0 1 5
1761 2 6.4 -8.6 0 0 0 0 1 5
1794 2 6.2 -8.4 0 0 0 0 1 5
1795 2 6.4 -8.4 0 0 0 0 1 5
1762 2 6.6 -8.6 0 0 0 0 1 5
1763 2 6.8 -8.6 0 0 0 0 1 5
1796 2 6.6 -8.4 0 0 0 0 1 5
1797 2 6.8 -8.4 0 0 0 0 1 5
1764 2 7 -8.6 0 0 0 0 1 5
1765 2 7.2 -8.6 0 0 0 0 1 5
1798 2 7 -8.4 0 0 0 0 1 5
1799 2 7.2 -8.4 0 0 0 0 1 5
1807 2 2 -8.2 0 0 0 0 1 5
1841 2 2 -8 0 0 0 0 1 5
1808 2 2.2 -8.2 0 0 0 0 1 5
1809 2 2.4 -8.2 0 0 0 0 1 5
1842 2 2.2 -8 0 0 0 0 1 5
1843 2 2.4 -8 0 0 0 0 1 5
1810 2 2.6 -8.2 0 0 0 0 1 5
1811 2 2.8 -8.2 0 0 0 0 1 5
1844 2 2.6 -8 0 0 0 0 1 5
1845 2 2.8 -8 0 0 0 0 1 5
1812 2 3 -8.2 0 0 0 0 1 5
1846 2 3 -8 0 0 0 0 1 5
1813 2 3.2 -8.2 0 0 0 0 1 5
1847 2 3.2 -8 0 0 0 0 1 5
1814 2 3.4 -8.2 0 0 0 0 1 5
1848 2 3.4 -8 0 0 0 0 1 5
1815 2 3.6 -8.2 0 0 0 0 1 5
1849 2 3.6 -8 0 0 0 0 1 5
1816 2 3.8 -8.2 0 0 0 0 1 5
1850 2 3.8 -8 0 0 0 0 1 5
1817 2 4 -8.2 0 0 0 0 1 5
1818 2 4.2 -8.2 0 0 0 0 1 5
1851 2 4 -8 0 0 0 0 1 5
1852 2 4.2 -8 0 0 0 0 1 5
1819 2 4.4 -8.2 0 0 0 0 1 5
1820 2 4.6 -8.2 0 0 0 0 1 5
1853 2 4.4 -8 0 0 0 0 1 5
1854 2 4.6 -8 0 0 0 0 1 5
1821 2 4.8 -8.2 0 0 0 0 1 5
1822 2 5 -8.2 0 0 0 0 1 5
1855 2 4.8 -8 0 0 0 0 1 5
1856 2 5 -8 0 0 0 0 1 5
1823 2 5.2 -8.2 0 0 0 0 1 5
1824 2 5.4 -8.2 0 0 0 0 1 5
1857 2 5.2 -8 0 0 0 0 1 5
1858 2 5.4 -8 0 0 0 0 1 5
1825 2 5.6 -8.2 0 0 0 0 1 5
1859 2 5.6 -8 0 0 0 0 1 5
1826 2 5.8 -8.2 0 0 0 0 1 5
1860 2 5.8 -8 0 0 0 0 1 5
1827 2 6 -8.2 0 0 0 0 1 5
1861 2 6 -8 0 0 0 0 1 5
1828 2 6.2 -8.2 0 0 0 0 1 5
1829 2 6.4 -8.2 0 0 0 0 1 5
1862 2 6.2 -8 0 0 0 0 1 5
1863 2 6.4 -8 0 0 0 0 1 5
1830 2 6.6 -8.2 0 0 0 0 1 5
1831 2 6.8 -8.2 0 0 0 0 1 5
1864 2 6.6 -8 0 0 0 0 1 5
1865 2 6.8 -8 0 0 0 0 1 5
1832 2 7 -8.2 0 0 0 0 1 5
1833 2 7.2 -8.2 0 0 0 0 1 5
1866 2 7 -8 0 0 0 0 1 5
1867 2 7.2 -8 0 0 0 0 1 5
1875 2 2 -7.8 0 0 0 0 1 5
1909 2 2 -7.6 0 0 0 0 1 5
1943 2 2 -7.4 0 0 0 0 1.00146 5
1876 2 2.2 -7.8 0 0 0 0 1 5
1877 2 2.4 -7.8 0 0 0 0 1 5
1910 2 2.2 -7.6 0 0 0 0 1 5
1911 2 2.4 -7.6 0 0 0 0 1 5
1944 2 2.2 -7.4 0 0 0 0 1.00163 5
1945 2 2.4 -7.4 0 0 0 0 1.00213 5
1878 2 2.6 -7.8 0 0 0 0 1 5
1879 2 2.8 -7.8 0 0 0 0 1 5
1912 2 2.6 -7.6 0 0 0 0 1 5
1913 2 2.8 -7.6 0 0 0 0 1 5
1946 2 2.6 -7.4 0 0 0 0 0.997491 5
1947 2 2.8 -7.4 0 0 0 0 1.00108 5
1880 2 3 -7.8 0 0 0 0 1 5
1914 2 3 -7.6 0 0 0 0 1 5
1948 2 3 -7.4 0 0 0 0 1.00047 5
1881 2 3.2 -7.8 0 0 0 0 1 5
1915 2 3.2 -7.6 0 0 0 0 1 5
1949 2 3.2 -7.4 0 0 0 0 1.00084 5
1882 2 3.4 -7.8 0 0 0 0 1 5
1916 2 3.4 -7.6 0 0 0 0 1 5
1950 2 3.4 -7.4 0 0 0 0 1.0005 5
1883 2 3.6 -7.8 0 0 0 0 1 5
1917 2 3.6 -7.6 0 0 0 0 1 5
1951 2 3.6 -7.4 0 0 0 0 0.999836 5
1884 2 3.8 -7.8 0 0 0 0 1 5
1918 2 3.8 -7.6 0 0 0 0 1 5
1952 2 3.8 -7.4 0 0 0 0 1.01533 5
1885 2 4 -7.8 0 0 0 0 1 5
1886 2 4.2 -7.8 0 0 0 0 1 5
1919 2 4 -7.6 0 0 0 0 1 5
1920 2 4.2 -7.6 0 0 0 0 1 5
1953 2 4 -7.4 0 0 0 0 1.02687 5
1954 2 4.2 -7.4 0 0 0 0 1.03013 5
1887 2 4.4 -7.8 0 0 0 0 1 5
1888 2 4.6 -7.8 0 0 0 0 1 5
1921 2 4.4 -7.6 0 0 0 0 1 5
1922 2 4.6 -7.6 0 0 0 0 1 5
1955 2 4.4 -7.4 0 0 0 0 1.02765 5
1956 2 4.6 -7.4 0 0 0 0 1.02501 5
1889 2 4.8 -7.8 0 0 0 0 1 5
1890 2 5 -7.8 0 0 0 0 1 5
1923 2 4.8 -7.6 0 0 0 0 1 5
1924 2 5 -7.6 0 0 0 0 1 5
1957 2 4.8 -7.4 0 0 0 0 1.02404 5
1958 2 5 -7.4 0 0 0 0 1.02398 5
1891 2 5.2 -7.8 0 0 0 0 1 5
1892 2 5.4 -7.8 0 0 0 0 1 5
1925 2 5.2 -7.6 0 0 0 0 1 5
1926 2 5.4 -7.6 0 0 0 0 1 5
1959 2 5.2 -7.4 0 0 0 0 1.02401 5
1960 2 5.4 -7.4 0 0 0 0 1.02392 5
1893 2 5.6 -7.8 0 0 0 0 1 5
1927 2 5.6 -7.6 0 0 0 0 1 5
1961 2 5.6 -7.4 0 0 0 0 1.02373 5
1894 2 5.8 -7.8 0 0 0 0 1 5
1928 2 5.8 -7.6 0 0 0 0 1 5
1962 2 5.8 -7.4 0 0 0 0 1.02374 5
1895 2 6 -7.8 0 0 0 0 1 5
1929 2 6 -7.6 0 0 0 0 1 5
1963 2 6 -7.4 0 0 0 0 1.02365 5
1896 2 6.2 -7.8 0 0 0 0 1 5
1897 2 6.4 -7.8 0 0 0 0 1 5
1930 2 6.2 -7.6 0 0 0 0 1 5
1931 2 6.4 -7.6 0 0 0 0 1 5
1964 2 6.2 -7.4 0 0 0 0 1.02351 5
1965 2 6.4 -7.4 0 0 0 0 1.02345 5
1898 2 6.6 -7.8 0 0 0 0 1 5
1899 2 6.8 -7.8 0 0 0 0 1 5
1932 2 6.6 -7.6 0 0 0 0 1 5
1933 2 6.8 -7.6 0 0 0 0 1 5
1966 2 6.6 -7.4 0 0 0 0 1.02341 5
1967 2 6.8 -7.4 0 0 0 0 1.02336 5
1900 2 7 -7.8 0 0 0 0 1 5
1901 2 7.2 -7.8 0 0 0 0 1 5
1934 2 7 -7.6 0 0 0 0 1 5
1935 2 7.2 -7.6 0 0 0 0 1 5
1968 2 7 -7.4 0 0 0 0 1.02332 5
1969 2 7.2 -7.4 0 0 0 0 1.02331 5
1977 2 2 -7.2 0 0 0 0 1.00149 5
2011 2 2 -7 0 0 0 0 1.00153 5
1978 2 2.2 -7.2 0 0 0 0 1.00096 5
1979 2 2.4 -7.2 0 0 0 0 1.00028 5
2012 2 2.2 -7 0 0 0 0 1.0003 5
2013 2 2.4 -7 0 0 0 0 1.00002 5
1980 2 2.6 -7.2 0 0 0 0 0.998879 5
1981 2 2.8 -7.2 0 0 0 0 0.99947 5
2014 2 2.6 -7 0 0 0 0 0.999521 5
2015 2 2.8 -7 0 0 0 0 0.999691 5
1982 2 3 -7.2 0 0 0 0 0.999456 5
2016 2 3 -7 0 0 0 0 0.999707 5
1983 2 3.2 -7.2 0 0 0 0 0.999816 5
2017 2 3.2 -7 0 0 0 0 0.999887 5
1984 2 3.4 -7.2 0 0 0 0 0.999785 5
2018 2 3.4 -7 0 0 0 0 1.00005 5
1985 2 3.6 -7.2 0 0 0 0 1.00103 5
2019 2 3.6 -7 0 0 0 0 1.00167 5
1986 2 3.8 -7.2 0 0 0 0 1.01023 5
2020 2 3.8 -7 0 0 0 0 1.00819 5
1987 2 4 -7.2 0 0 0 0 1.01756 5
1988 2 4.2 -7.2 0 0 0 0 1.02608 5
2021 2 4 -7 0 0 0 0 1.01476 5
2022 2 4.2 -7 0 0 0 0 1.02426 5
1989 2 4.4 -7.2 0 0 0 0 1.02912 5
1990 2 4.6 -7.2 0 0 0 0 1.02594 5
2023 2 4.4 -7 0 0 0 0 1.02953 5
2024 2 4.6 -7 0 0 0 0 1.02651 5
1991 2 4.8 -7.2 0 0 0 0 1.02461 5
1992 2 5 -7.2 0 0 0 0 1.02456 5
2025 2 4.8 -7 0 0 0 0 1.02503 5
2026 2 5 -7 0 0 0 0 1.02499 5
1993 2 5.2 -7.2 0 0 0 0 1.02452 5
1994 2 5.4 -7.2 0 0 0 0 1.02437 5
2027 2 5.2 -7 0 0 0 0 1.02494 5
2028 2 5.4 -7 0 0 0 0 1.0248 5
1995 2 5.6 -7.2 0 0 0 0 1.02427 5
2029 2 5.6 -7 0 0 0 0 1.02467 5
1996 2 5.8 -7.2 0 0 0 0 1.02419 5
2030 2 5.8 -7 0 0 0 0 1.02457 5
1997 2 6 -7.2 0 0 0 0 1.02405 5
2031 2 6 -7 0 0 0 0 1.02441 5
1998 2 6.2 -7.2 0 0 0 0 1.02391 5
1999 2 6.4 -7.2 0 0 0 0 1.02382 5
2032 2 6.2 -7 0 0 0 0 1.02428 5
2033 2 6.4 -7 0 0 0 0 1.02417 5
2000 2 6.6 -7.2 0 0 0 0 1.02374 5
2001 2 6.8 -7.2 0 0 0 0 1.02367 5
2034 2 6.6 -7 0 0 0 0 1.02406 5
2035 2 6.8 -7 0 0 0 0 1.02396 5
2002 2 7 -7.2 0 0 0 0 1.02362 5
2003 2 7.2 -7.2 0 0 0 0 1.02356 5
2036 2 7 -7 0 0 0 0 1.02389 5
2037 2 7.2 -7 0 0 0 0 1.02383 5
12132 1 1.01134 -6.76992 0.02 0 0 0 1 2
12133 1 0.823175 -6.58073 0.02 0 0 0 1 2
12134 1 1.03438 -6.58688 0.02 0 0 0 1 2
12135 1 1.23028 -6.75274 0.02 0 -1.01254e-10 -3.39883e-11 1 2
12136 1 1.4396 -6.73947 0.02 0 -2.69325e-06 -1.36529e-06 1 2
12137 1 1.23801 -6.56746 0.02 0 -2.70031e-14 -9.04444e-15 1 2
12138 1 1.43634 -6.55685 0.02 0 -1.32791e-09 -6.02808e-10 1 2
12287 1 1.63809 -6.74787 0.02 0 -0.000442477 -0.00015594 1 2
12289 1 1.6365 -6.55697 0.02 0 -4.36768e-06 -4.25563e-07 1 2
12288 1 1.83089 -6.7403 0.02 0 -0.00229173 -0.000544442 1 2
12290 1 1.83991 -6.5555 0.02 0 -2.63201e-05 0.000131838 1 2
12291 1 2.02488 -6.74105 0.02 0 -0.00328475 -0.00065416 1 2
12293 1 2.05064 -6.56028 0.02 0 5.49666e-05 0.000461599 1 2
12292 1 2.22568 -6.75011 0.02 0 -0.00301983 -0.000621653 1 2
12294 1 2.25906 -6.56898 0.02 0 0.000137893 0.000566109 1 2
12295 1 2.43839 -6.76334 0.02 0 -0.00308636 -0.000479994 1 2
12297 1 2.45347 -6.56817 0.02 0 0.000109396 0.000402709 1 2
11883 1 2.83683 -6.55135 0.02 0 0.000179191 0.000357588 1 2
11880 1 2.83987 -6.74606 0.02 0 -0.00279048 -0.000441972 1 2
12296 1 2.64217 -6.74804 0.02 0 -0.00258804 -0.00041944 1 2
12298 1 2.64536 -6.56085 0.02 0 0.000107165 0.000333766 1 2
11881 1 3.03191 -6.74071 0.02 0 -0.00262969 -0.000451854 1 2
11882 1 3.22212 -6.73853 0.02 0 -0.00266093 -0.000513597 1 2
11884 1 3.0198 -6.54387 0.02 0 0.000203739 0.000402204 1 2
11885 1 3.19639 -6.52885 0.02 0 0.000252738 0.000422094 1 2
11888 1 3.37577 -6.545 0.02 0 0.000266541 0.000500012 1 2
11886 1 3.41073 -6.73888 0.02 0 -0.00276869 -0.000449813 1 2
11887 1 3.5972 -6.73265 0.02 0 -0.00296166 -0.000270904 1 2
11889 1 3.56548 -6.54222 0.02 0 0.000147575 0.000522 1 2
11892 1 3.77409 -6.55789 0.02 0 -0.00152977 0.000573616 1 2
11890 1 3.78345 -6.73781 0.02 0 -0.005366 -5.84758e-05 1 2
11891 1 3.97755 -6.75088 0.02 0 -0.0111945 0.0019071 1 2
11893 1 3.9837 -6.5675 0.02 0 -0.00596158 0.00126132 1 2
11894 1 4.03657 -6.78258 0.0071605 0.000527178 7.83316e-06 -2.41934e-06 1.02812 0
11896 1 4.01027 -6.5857 0.0126953 0.00120346 -2.31572e-06 -8.4036e-06 1.02125 0
11895 1 4.17813 -6.75667 0.00532515 0.000271363 8.44431e-06 -5.02978e-06 1.03498 0
11897 1 4.18437 -6.53342 0.00972423 0.00264124 -7.87058e-06 -2.10144e-06 1.03185 0
11898 1 4.30538 -6.63351 0.00794051 0.00173499 -6.40322e-06 -1.1764e-05 1.03102 0
11900 1 4.34077 -6.45453 0.0109904 0.00263072 -2.14253e-05 -1.05101e-05 1.02991 0
11899 1 4.46065 -6.5649 0.0100275 0.00170009 -1.6582e-05 -1.11642e-05 1.02705 0
11544 1 4.36947 -6.78969 0.00445548 -0.000225107 -1.17808e-05 -6.75605e-06 1.03148 0
11547 1 4.54186 -6.67139 0.00721773 0.000856388 -1.59229e-05 -5.80031e-06 1.02573 0
11551 1 4.69606 -6.59998 0.0082303 0.00108158 -1.93863e-05 -1.5481e-06 1.02504 0
11548 1 4.84726 -6.52334 0.0088783 0.00121625 -1.88904e-05 1.79758e-06 1.02527 0
11552 1 4.64635 -6.79102 0.00403752 0.000124283 -1.12101e-05 2.76404e-07 1.02604 0
11559 1 4.81859 -6.71192 0.00490537 0.000415383 -1.46108e-05 2.41175e-06 1.0251 0
11556 1 4.98311 -6.57963 0.00711666 0.000776944 -1.56898e-05 4.63688e-06 1.02518 0
11560 1 5.15241 -6.56133 0.00679204 0.000587499 -1.15876e-05 7.55429e-06 1.02509 0
11164 1 4.96125 -6.77688 0.00309151 -0.000118647 -9.97016e-06 3.74271e-06 1.02589 0
11172 1 5.11703 -6.71761 0.00381688 6.58974e-05 -9.36776e-06 4.65372e-06 1.02536 0
11162 1 5.32283 -6.55965 0.00631431 0.000451765 -7.0093e-06 8.45687e-06 1.02484 0
11323 1 5.25914 -6.74634 0.00306293 -0.000155118 -6.22434e-06 4.62903e-06 1.02554 0
11167 1 5.48553 -6.54794 0.00609193 0.000352298 -3.06202e-06 9.09287e-06 1.02462 0
11322 1 5.67739 -6.54655 0.00569358 0.000284237 1.00265e-06 9.01969e-06 1.02443 0
10850 1 5.40714 -6.74926 0.00279776 -0.000197297 -3.91793e-06 4.62373e-06 1.0254 0
10857 1 5.55898 -6.68439 0.0036393 2.86011e-05 -1.92714e-06 6.28219e-06 1.02471 0
10507 1 5.67258 -6.78208 0.00214245 -0.000295278 -7.19926e-07 3.77419e-06 1.02523 0
10846 1 5.81292 -6.61394 0.0043784 0.00011999 2.66756e-06 7.293e-06 1.02436 0
10862 1 5.98445 -6.58 0.00463918 0.000111833 5.5331e-06 7.17224e-06 1.0242 0
10519 1 5.86824 -6.76459 0.00217776 -0.000242496 1.55338e-06 3.69985e-06 1.02499 0
10189 1 6.0558 -6.77276 0.00196949 -0.000282045 3.18484e-06 2.84763e-06 1.02486 0
10511 1 6.13367 -6.60756 0.00404529 5.06635e-05 7.0276e-06 5.74255e-06 1.02411 0
10503 1 6.29399 -6.60588 0.00388618 3.4528e-05 8.56604e-06 4.84644e-06 1.02401 0
10174 1 6.45361 -6.6029 0.00376008 2.49782e-05 9.55069e-06 4.04239e-06 1.0239 0
3109 1 6.26517 -6.77805 0.00180844 -0.000299799 4.69831e-06 1.84322e-06 1.02472 0
3113 1 6.47574 -6.77391 0.00173986 -0.00028585 5.75192e-06 1.10331e-06 1.02457 0
10178 1 6.61961 -6.60203 0.00361901 1.35828e-05 9.98968e-06 3.25311e-06 1.0238 0
3101 1 6.79345 -6.59642 0.003558 1.02461e-05 9.93968e-06 2.53969e-06 1.02371 0
3103 1 6.96749 -6.58539 0.00358707 1.39097e-05 9.48897e-06 2.11392e-06 1.02362 0
3116 1 6.67985 -6.76678 0.0017167 -0.000265141 6.33484e-06 6.86577e-07 1.02442 0
3117 1 6.87526 -6.76092 0.00169577 -0.000252406 6.32768e-06 3.47619e-07 1.0243 0
3105 1 7.13411 -6.57854 0.00358801 9.65942e-06 8.57184e-06 1.77707e-06 1.02355 0
3118 1 7.06505 -6.76155 0.00162668 -0.000258128 5.75186e-06 1.00955e-07 1.02426 0
3111 1 7.30505 -6.58462 0.00346078 -1.07697e-05 7.14561e-06 1.41347e-06 1.0235 0
3119 1 7.25584 -6.7516 0.00167355 -0.000241491 5.11137e-06 6.47176e-08 1.02415 0
12139 1 0.858697 -6.40681 0.02 0 0 0 1 2
12140 1 0.885179 -6.22242 0.02 0 0 0 1 2
12141 1 1.06334 -6.40373 0.02 0 0 0 1 2
12142 1 1.09303 -6.21248 0.02 0 0 0 1 2
12143 1 1.2666 -6.37967 0.02 0 0 0 1 2
12144 1 1.30528 -6.19565 0.02 0 0 0 1 2
12302 1 1.52365 -6.19087 0.02 0 1.76769e-10 1.15122e-09 1 2
12303 1 1.47236 -6.37223 0.02 0 2.44789e-09 2.89938e-08 1 2
12299 1 1.67787 -6.36827 0.02 0 1.04793e-06 9.48417e-06 1 2
12300 1 1.88363 -6.37473 0.02 0 1.75264e-05 7.63866e-05 1 2
12301 1 1.73921 -6.18388 0.02 0 9.60501e-08 4.19992e-07 1 2
12304 1 1.94465 -6.19169 0.02 0 1.7758e-06 6.36777e-06 1 2
12305 1 2.08975 -6.37712 0.02 0 5.94695e-05 0.000158306 1 2
12306 1 2.28653 -6.38113 0.02 0 9.73283e-05 0.000176959 1 2
12307 1 2.13987 -6.18031 0.02 0 3.50245e-06 1.20774e-05 1 2
12308 1 2.32967 -6.18345 0.02 0 5.43866e-06 1.4501e-05 1 2
12309 1 2.48051 -6.37127 0.02 0 9.00794e-05 0.000143572 1 2
12311 1 2.51815 -6.17064 0.02 0 4.51218e-06 1.17241e-05 1 2
11901 1 2.87339 -6.12486 0.02 0 1.60537e-06 4.55074e-06 1 2
11902 1 2.85072 -6.34641 0.02 0 6.66411e-05 9.90049e-05 1 2
12310 1 2.66904 -6.36378 0.02 0 7.73492e-05 0.000122532 1 2
12312 1 2.69986 -6.14857 0.02 0 2.76408e-06 7.67782e-06 1 2
11903 1 3.02608 -6.3224 0.02 0 4.96169e-05 7.31555e-05 1 2
11904 1 3.201 -6.31438 0.02 0 4.63132e-05 6.95742e-05 1 2
11905 1 3.21571 -6.10319 0.02 0 1.15755e-06 2.93853e-06 1 2
11906 1 3.37809 -6.33691 0.02 0 5.67358e-05 8.512e-05 1 2
11907 1 3.5594 -6.34124 0.02 0 -1.99676e-05 9.34167e-05 1 2
11908 1 3.39594 -6.12551 0.02 0 1.39005e-06 4.41472e-06 1 2
11909 1 3.58309 -6.14134 0.02 0 -0.000112494 1.29577e-05 1 2
11910 1 3.74549 -6.37765 0.02 0 -0.00105139 0.000195657 1 2
11912 1 3.77231 -6.18839 0.02 0 -0.00121692 6.22108e-05 1 2
11911 1 3.95177 -6.39041 0.02 0 -0.0051151 0.000571787 1 2
11913 1 3.97124 -6.20886 0.02 0 -0.00471814 0.000477994 1 2
11914 1 4.07811 -6.38903 0.0119013 0.00147335 -6.47678e-05 5.94885e-05 1.02656 0
11916 1 3.99973 -6.20766 0.02 0 -0.00308089 0.000434107 1.01703 2
11545 1 4.51251 -6.39363 0.0123722 0.00242472 -1.48738e-05 -1.31273e-05 1.02635 0
11915 1 4.23595 -6.33393 0.0110199 0.00257017 -8.55426e-05 2.35759e-05 1.03147 0
11917 1 4.1814 -6.17893 0.0119848 0.00223612 -0.000183096 -4.02219e-05 1.03009 0
11918 1 4.34402 -6.1279 0.0128578 0.00306506 -2.54574e-05 -2.5328e-05 1.02886 0
11919 1 4.40577 -6.27103 0.0131429 0.00296105 -2.41305e-05 -1.57134e-05 1.02793 0
11563 1 4.56787 -6.21672 0.0136389 0.00291675 -4.52136e-06 -9.11183e-06 1.02569 0
11920 1 4.49243 -6.05082 0.0143353 0.00318739 9.03551e-06 -6.73687e-06 1.02596 0
11546 1 4.64826 -6.44294 0.0112656 0.00195865 -1.88751e-05 -7.09084e-06 1.02545 0
11549 1 4.79046 -6.36957 0.01142 0.00199839 -1.67774e-05 -1.64982e-06 1.02546 0
11564 1 4.65668 -6.04732 0.0143008 0.00316513 2.00863e-06 9.83803e-07 1.0252 0
11565 1 4.72504 -6.21844 0.0131461 0.00267647 -9.33858e-06 -2.69083e-06 1.02542 0
11566 1 4.8377 -6.06054 0.0137365 0.00290495 -3.42157e-06 6.98429e-06 1.0254 0
11550 1 4.90443 -6.21365 0.0124343 0.00232085 -1.04648e-05 4.57005e-06 1.02558 0
11553 1 4.96588 -6.36116 0.0106394 0.00164008 -1.45371e-05 5.02417e-06 1.02556 0
11567 1 5.01995 -6.07443 0.0130708 0.00250462 -5.29159e-06 1.21227e-05 1.02546 0
11554 1 5.10495 -6.40692 0.00943706 0.00119837 -1.22713e-05 7.93311e-06 1.02538 0
11570 1 5.10851 -6.22052 0.011582 0.00183819 -8.66672e-06 1.05697e-05 1.02546 0
11555 1 5.25705 -6.3799 0.00923106 0.00103312 -8.09276e-06 1.07091e-05 1.02515 0
11557 1 5.26756 -6.19237 0.0113097 0.00159838 -5.54309e-06 1.37354e-05 1.02519 0
11558 1 5.42128 -6.16746 0.0110565 0.00140116 -2.5639e-06 1.5168e-05 1.02497 0
11561 1 5.4065 -6.36258 0.00895664 0.000877018 -4.20503e-06 1.20099e-05 1.02493 0
11562 1 5.56931 -6.21131 0.0101656 0.00106074 -2.47021e-08 1.45767e-05 1.02481 0
11163 1 5.56038 -6.38783 0.00817261 0.000646879 -7.46258e-07 1.18825e-05 1.02471 0
11161 1 5.73224 -6.18099 0.0100054 0.000942344 2.84793e-06 1.44678e-05 1.02466 0
11168 1 5.72041 -6.37536 0.00789941 0.000549195 2.60062e-06 1.17399e-05 1.02457 0
10845 1 5.89041 -6.4452 0.00664363 0.000329057 5.32492e-06 9.92676e-06 1.02435 0
11165 1 5.8847 -6.08647 0.0104982 0.000988247 4.63592e-06 1.48405e-05 1.02451 0
11166 1 5.86766 -6.27486 0.00867951 0.000619356 5.21891e-06 1.25071e-05 1.02452 0
11169 1 6.05346 -6.09711 0.0100012 0.000795969 6.81976e-06 1.35178e-05 1.02438 0
11171 1 6.02813 -6.26857 0.00837276 0.000508194 7.50119e-06 1.15466e-05 1.02439 0
11324 1 6.08998 -6.41042 0.00666591 0.000275669 8.29465e-06 9.24262e-06 1.02422 0
11174 1 6.19332 -6.18931 0.00882236 0.000521889 8.97437e-06 1.14383e-05 1.02428 0
11326 1 6.31628 -6.26506 0.00782227 0.000343653 1.03762e-05 9.61397e-06 1.02416 0
10849 1 6.24222 -6.43678 0.006091 0.000192649 9.8236e-06 7.83543e-06 1.02407 0
11325 1 6.43546 -6.07613 0.00941954 0.000518745 9.52887e-06 1.11176e-05 1.0241 0
10847 1 6.47352 -6.23747 0.00783092 0.000300787 1.10371e-05 8.8878e-06 1.02406 0
10854 1 6.40881 -6.42606 0.00596251 0.000159497 1.10928e-05 6.90053e-06 1.02397 0
10502 1 6.56844 -6.42251 0.00579195 0.000126579 1.1649e-05 5.94958e-06 1.02387 0
10853 1 6.62546 -6.22916 0.00768677 0.000243617 1.11881e-05 8.00449e-06 1.02396 0
10852 1 6.77597 -6.23737 0.00741699 0.000181537 1.09268e-05 7.01808e-06 1.02386 0
10858 1 6.92919 -6.22229 0.00739958 0.000138381 1.00542e-05 6.37727e-06 1.02378 0
10861 1 6.72687 -6.42419 0.0055949 9.6479e-05 1.1601e-05 5.02625e-06 1.02376 0
10504 1 6.88888 -6.41674 0.00552042 7.55004e-05 1.10105e-05 4.33272e-06 1.02368 0
10859 1 7.08817 -6.20364 0.00743949 9.47838e-05 8.7568e-06 5.83855e-06 1.0237 0
10512 1 7.04781 -6.39402 0.00563303 5.6719e-05 9.98187e-06 3.96631e-06 1.02361 0
10864 1 7.23291 -6.15393 0.00779434 6.30069e-05 7.06538e-06 5.76899e-06 1.02365 0
10515 1 7.2023 -6.37867 0.00569477 2.91444e-05 8.61454e-06 3.61719e-06 1.02356 0
11740 1 3.64281 -0.191014 0.02 0 -0.000396454 2.07797e-05 1 2
11731 1 4.45445 -0.339106 0.0151608 1.53513e-05 -1.54611e-05 -4.59043e-05 1.02356 0
12145 1 0.920587 -6.03472 0.02 0 0 0 1 2
12146 1 0.956467 -5.84117 0.02 0 0 0 1 2
12147 1 1.12647 -6.01924 0.02 0 0 0 1 2
12148 1 1.1512 -5.81749 0.02 0 0 0 1 2
12149 1 1.33657 -6.01437 0.02 0 0 0 1 2
12150 1 1.34536 -5.82674 0.02 0 0 0 1 2
12315 1 1.54843 -6.00636 0.02 0 0 0 1 2
12316 1 1.54073 -5.81326 0.02 0 0 0 1 2
12313 1 1.75047 -5.99117 0.02 0 4.85635e-10 2.34597e-09 1 2
12314 1 1.73565 -5.79328 0.02 0 0 0 1 2
12317 1 1.9306 -5.79598 0.02 0 2.91504e-12 3.6757e-11 1 2
12318 1 1.94717 -5.99602 0.02 0 1.29333e-08 6.58858e-08 1 2
12319 1 2.13794 -5.97428 0.02 0 1.11531e-08 6.34191e-08 1 2
12320 1 2.32606 -5.97736 0.02 0 1.44382e-08 6.3501e-08 1 2
12321 1 2.12484 -5.76887 0.02 0 1.7416e-12 2.02221e-11 1 2
12322 1 2.31729 -5.76878 0.02 0 2.9748e-12 2.02848e-11 1 2
12323 1 2.51393 -5.96884 0.02 0 9.97805e-09 4.06013e-08 1 2
12325 1 2.5105 -5.76381 0.02 0 1.53029e-12 1.20911e-11 1 2
11922 1 2.86521 -5.88435 0.02 0 3.84758e-10 9.99655e-10 1 2
11925 1 2.87153 -5.65275 0.02 0 2.54628e-20 7.75642e-19 1 2
12324 1 2.69391 -5.92677 0.02 0 1.76967e-09 6.08858e-09 1 2
12326 1 2.69228 -5.69996 0.02 0 9.93551e-16 3.52781e-14 1 2
11921 1 3.04058 -6.08372 0.02 0 6.48688e-07 1.86019e-06 1 2
11923 1 3.04154 -5.86482 0.02 0 7.70698e-11 1.78148e-10 1 2
11924 1 3.2233 -5.88612 0.02 0 3.29588e-11 3.46684e-10 1 2
11926 1 3.0604 -5.65753 0.02 0 1.14115e-17 1.98977e-16 1 2
11927 1 3.25293 -5.67751 0.02 0 6.3886e-17 6.85369e-16 1 2
11928 1 3.40759 -5.91883 0.02 0 -4.45052e-07 -6.30859e-08 1 2
11929 1 3.60013 -5.94538 0.02 0 -0.000146012 -5.52813e-06 1 2
11930 1 3.44518 -5.719 0.02 0 -4.35641e-06 -1.34084e-07 1 2
11931 1 3.64297 -5.75573 0.02 0 -0.000344978 -1.60107e-05 1 2
11932 1 3.79286 -5.99199 0.02 0 -0.00154006 -0.000100174 1 2
11933 1 3.9879 -6.01992 0.02 0 -0.00521619 -0.00011192 1 2
11934 1 3.83302 -5.79335 0.02 0 -0.00223312 -0.000108043 1 2
11935 1 4.00025 -5.82632 0.0187248 -2.85328e-05 -0.00510078 -0.000114131 1.01027 0
11936 1 4.088 -5.9975 0.0130132 0.000962871 2.70199e-05 -7.14406e-05 1.0244 0
11938 1 4.10189 -5.79924 0.0133858 0.00074874 0.000270417 -2.60539e-05 1.02508 0
11937 1 4.23922 -5.99742 0.0120613 0.00220719 2.24893e-05 -4.88839e-05 1.02945 0
11939 1 4.2476 -5.813 0.0127559 0.00189498 0.000143391 -1.89094e-05 1.0287 0
11940 1 4.39072 -5.91596 0.0139536 0.0029701 4.30702e-05 -6.59382e-06 1.02711 0
11942 1 4.41888 -5.74383 0.0146878 0.00284363 5.55436e-05 1.88643e-05 1.02622 0
11941 1 4.56213 -5.87196 0.0148717 0.00323758 1.76616e-05 1.06558e-05 1.02509 0
11943 1 4.54635 -5.6433 0.0153187 0.00308953 2.31762e-05 3.58214e-05 1.02478 0
11568 1 4.75191 -5.90979 0.0146037 0.00325347 5.21462e-06 1.28317e-05 1.02508 0
11569 1 4.94904 -5.91516 0.0141499 0.00300401 2.63256e-07 1.69403e-05 1.0253 0
11582 1 4.67864 -5.74626 0.0151302 0.0033092 1.32881e-05 2.51401e-05 1.02476 0
11583 1 4.7098 -5.56693 0.015481 0.00328425 9.80505e-06 4.11189e-05 1.02452 0
11584 1 4.85021 -5.76933 0.0148734 0.00327999 5.98065e-06 2.40723e-05 1.02503 0
11586 1 4.87122 -5.6022 0.0152856 0.00332035 5.72912e-06 3.47589e-05 1.02482 0
11585 1 5.0158 -5.71875 0.014797 0.00314911 2.42133e-06 2.68764e-05 1.02505 0
11571 1 5.1779 -6.02471 0.0129634 0.00228615 -3.89967e-06 1.65845e-05 1.02523 0
11574 1 5.33698 -5.99765 0.0127212 0.00203319 -2.64582e-06 1.82123e-05 1.02499 0
11572 1 5.1089 -5.86297 0.0140651 0.00280111 -9.56914e-07 2.0938e-05 1.02515 0
11573 1 5.2674 -5.82938 0.0139259 0.00255516 -1.8691e-06 2.20771e-05 1.02493 0
11588 1 5.17554 -5.65813 0.0148243 0.00297631 -8.63954e-07 2.74005e-05 1.02485 0
11589 1 5.3378 -5.65889 0.0146076 0.00271486 -2.38094e-06 2.5101e-05 1.02469 0
11575 1 5.49761 -5.98919 0.0123448 0.00176134 -1.02727e-06 1.8188e-05 1.0248 0
11578 1 5.64403 -6.03609 0.0115692 0.00140895 9.44145e-07 1.69178e-05 1.02469 0
11576 1 5.43662 -5.81635 0.0136395 0.00227081 -1.75187e-06 2.13792e-05 1.02474 0
11593 1 5.50946 -5.64624 0.0143812 0.00245457 -2.39143e-06 2.28981e-05 1.02454 0
11577 1 5.60233 -5.82674 0.0132003 0.00196375 -5.91313e-07 1.99268e-05 1.0246 0
11594 1 5.66449 -5.60521 0.0143038 0.00227144 -1.77518e-06 2.12351e-05 1.0244 0
11579 1 5.76751 -5.94003 0.0120109 0.0014649 2.02186e-06 1.73576e-05 1.02454 0
11580 1 5.74847 -5.75916 0.0132949 0.00186846 3.05117e-07 1.92944e-05 1.02445 0
11176 1 5.92286 -5.89743 0.011965 0.00134671 3.45284e-06 1.66382e-05 1.0244 0
11581 1 5.90183 -5.71236 0.0132628 0.0017266 1.40993e-06 1.82849e-05 1.02432 0
11177 1 6.08098 -5.93554 0.0113206 0.00108118 5.487e-06 1.51366e-05 1.0243 0
11175 1 6.0569 -5.74622 0.0127406 0.00145101 3.21492e-06 1.68365e-05 1.02423 0
11179 1 6.18846 -5.6562 0.0130715 0.00142175 3.28708e-06 1.63108e-05 1.0241 0
11178 1 6.22342 -5.84534 0.0117251 0.00108193 5.63125e-06 1.49299e-05 1.02416 0
11170 1 6.25423 -6.02623 0.0102054 0.000744425 7.97358e-06 1.29493e-05 1.02422 0
11181 1 6.36372 -5.74158 0.0122163 0.00108155 5.21223e-06 1.46185e-05 1.02403 0
11173 1 6.40481 -5.91273 0.0108708 0.000788337 7.43025e-06 1.30433e-05 1.02407 0
11182 1 6.5324 -5.7312 0.0120218 0.000907255 5.54026e-06 1.34649e-05 1.02393 0
11186 1 6.58174 -5.89605 0.0107133 0.000650539 7.60199e-06 1.19679e-05 1.02395 0
11327 1 6.62989 -6.05198 0.00932105 0.000418777 9.55265e-06 1.00977e-05 1.02396 0
10848 1 6.808 -6.05234 0.00907909 0.000310456 9.11751e-06 8.95308e-06 1.02386 0
11185 1 6.70402 -5.71298 0.0119133 0.000749488 5.29434e-06 1.23414e-05 1.02383 0
11328 1 6.76107 -5.86836 0.0106803 0.000531793 7.02509e-06 1.09822e-05 1.02384 0
11329 1 6.95081 -5.73621 0.0114676 0.000495225 4.75734e-06 1.05875e-05 1.02371 0
10851 1 7.00589 -6.04297 0.00894816 0.000211997 7.88422e-06 7.93501e-06 1.02375 0
11332 1 6.92635 -5.90067 0.0102273 0.000373554 6.74606e-06 9.68377e-06 1.02377 0
10865 1 7.11165 -5.83905 0.0105445 0.000292187 4.91454e-06 9.03574e-06 1.02367 0
11333 1 7.12642 -5.65934 0.0118656 0.000396776 3.07684e-06 9.86633e-06 1.02362 0
10855 1 7.18353 -5.98137 0.00932528 0.000158684 5.90587e-06 7.63121e-06 1.02366 0
10867 1 7.27877 -5.71407 0.0113768 0.000241962 2.62267e-06 8.8101e-06 1.02357 0
11734 1 4.1435 -0.165477 0.0139793 0.000577215 -0.000291969 -6.82469e-05 1.02592 0
11732 1 4.29359 -0.255584 0.0144699 0.000128416 -8.80532e-05 -4.51631e-05 1.02595 0