ITEM: TIMESTEP
26000
ITEM: NUMBER OF ATOMS
11369
ITEM: BOX BOUNDS ff ff pp
0.0000000000000000e+00 2.2000000000000000e+01
-1.0000000000000000e+01 1.0000000000000000e+01
-2.0000000000000000e-02 2.0000000000000000e-02
ITEM: ATOMS id type x y vx vy fx fy c_den c_phase
1501 2 2 -10 0 0 0 0 1 5
1535 2 2 -9.8 0 0 0 0 1 5
1569 2 2 -9.6 0 0 0 0 1 5
1502 2 2.2 -10 0 0 0 0 1 5
1503 2 2.4 -10 0 0 0 0 1 5
1536 2 2.2 -9.8 0 0 0 0 1 5
1537 2 2.4 -9.8 0 0 0 0 1 5
1570 2 2.2 -9.6 0 0 0 0 1 5
1571 2 2.4 -9.6 0 0 0 0 1 5
1504 2 2.6 -10 0 0 0 0 1 5
1505 2 2.8 -10 0 0 0 0 1 5
1538 2 2.6 -9.8 0 0 0 0 1 5
1539 2 2.8 -9.8 0 0 0 0 1 5
1572 2 2.6 -9.6 0 0 0 0 1 5
1573 2 2.8 -9.6 0 0 0 0 1 5
1506 2 3 -10 0 0 0 0 1 5
1540 2 3 -9.8 0 0 0 0 1 5
1574 2 3 -9.6 0 0 0 0 1 5
1507 2 3.2 -10 0 0 0 0 1 5
1541 2 3.2 -9.8 0 0 0 0 1 5
1575 2 3.2 -9.6 0 0 0 0 1 5
1508 2 3.4 -10 0 0 0 0 1 5
1542 2 3.4 -9.8 0 0 0 0 1 5
1576 2 3.4 -9.6 0 0 0 0 1 5
1509 2 3.6 -10 0 0 0 0 1 5
1543 2 3.6 -9.8 0 0 0 0 1 5
1577 2 3.6 -9.6 0 0 0 0 1 5
1510 2 3.8 -10 0 0 0 0 1 5
1544 2 3.8 -9.8 0 0 0 0 1 5
1578 2 3.8 -9.6 0 0 0 0 1 5
1511 2 4 -10 0 0 0 0 1 5
1512 2 4.2 -10 0 0 0 0 1 5
1545 2 4 -9.8 0 0 0 0 1 5
1546 2 4.2 -9.8 0 0 0 0 1 5
1579 2 4 -9.6 0 0 0 0 1 5
1580 2 4.2 -9.6 0 0 0 0 1 5
1513 2 4.4 -10 0 0 0 0 1 5
1514 2 4.6 -10 0 0 0 0 1 5
1547 2 4.4 -9.8 0 0 0 0 1 5
1548 2 4.6 -9.8 0 0 0 0 1 5
1581 2 4.4 -9.6 0 0 0 0 1 5
1582 2 4.6 -9.6 0 0 0 0 1 5
1515 2 4.8 -10 0 0 0 0 1 5
1516 2 5 -10 0 0 0 0 1 5
1549 2 4.8 -9.8 0 0 0 0 1 5
1550 2 5 -9.8 0 0 0 0 1 5
1583 2 4.8 -9.6 0 0 0 0 1 5
1584 2 5 -9.6 0 0 0 0 1 5
1517 2 5.2 -10 0 0 0 0 1 5
1518 2 5.4 -10 0 0 0 0 1 5
1551 2 5.2 -9.8 0 0 0 0 1 5
1552 2 5.4 -9.8 0 0 0 0 1 5
1585 2 5.2 -9.6 0 0 0 0 1 5
1586 2 5.4 -9.6 0 0 0 0 1 5
1519 2 5.6 -10 0 0 0 0 1 5
1553 2 5.6 -9.8 0 0 0 0 1 5
1587 2 5.6 -9.6 0 0 0 0 1 5
1520 2 5.8 -10 0 0 0 0 1 5
1554 2 5.8 -9.8 0 0 0 0 1 5
1588 2 5.8 -9.6 0 0 0 0 1 5
1521 2 6 -10 0 0 0 0 1 5
1555 2 6 -9.8 0 0 0 0 1 5
1589 2 6 -9.6 0 0 0 0 1 5
1522 2 6.2 -10 0 0 0 0 1 5
1523 2 6.4 -10 0 0 0 0 1 5
1556 2 6.2 -9.8 0 0 0 0 1 5
1557 2 6.4 -9.8 0 0 0 0 1 5
1590 2 6.2 -9.6 0 0 0 0 1 5
1591 2 6.4 -9.6 0 0 0 0 1 5
1524 2 6.6 -10 0 0 0 0 1 5
1525 2 6.8 -10 0 0 0 0 1 5
1558 2 6.6 -9.8 0 0 0 0 1 5
1559 2 6.8 -9.8 0 0 0 0 1 5
1592 2 6.6 -9.6 0 0 0 0 1 5
1593 2 6.8 -9.6 0 0 0 0 1 5
1526 2 7 -10 0 0 0 0 1 5
1527 2 7.2 -10 0 0 0 0 1 5
1560 2 7 -9.8 0 0 0 0 1 5
1561 2 7.2 -9.8 0 0 0 0 1 5
1594 2 7 -9.6 0 0 0 0 1 5
1595 2 7.2 -9.6 0 0 0 0 1 5
1603 2 2 -9.4 0 0 0 0 1 5
1637 2 2 -9.2 0 0 0 0 1 5
1604 2 2.2 -9.4 0 0 0 0 1 5
1605 2 2.4 -9.4 0 0 0 0 1 5
1638 2 2.2 -9.2 0 0 0 0 1 5
1639 2 2.4 -9.2 0 0 0 0 1 5
1606 2 2.6 -9.4 0 0 0 0 1 5
1607 2 2.8 -9.4 0 0 0 0 1 5
1640 2 2.6 -9.2 0 0 0 0 1 5
1641 2 2.8 -9.2 0 0 0 0 1 5
1608 2 3 -9.4 0 0 0 0 1 5
1642 2 3 -9.2 0 0 0 0 1 5
1609 2 3.2 -9.4 0 0 0 0 1 5
1643 2 3.2 -9.2 0 0 0 0 1 5
1610 2 3.4 -9.4 0 0 0 0 1 5
1644 2 3.4 -9.2 0 0 0 0 1 5
1611 2 3.6 -9.4 0 0 0 0 1 5
1645 2 3.6 -9.2 0 0 0 0 1 5
1612 2 3.8 -9.4 0 0 0 0 1 5
1646 2 3.8 -9.2 0 0 0 0 1 5
1613 2 4 -9.4 0 0 0 0 1 5
1614 2 4.2 -9.4 0 0 0 0 1 5
1647 2 4 -9.2 0 0 0 0 1 5
1648 2 4.2 -9.2 0 0 0 0 1 5
1615 2 4.4 -9.4 0 0 0 0 1 5
1616 2 4.6 -9.4 0 0 0 0 1 5
1649 2 4.4 -9.2 0 0 0 0 1 5
1650 2 4.6 -9.2 0 0 0 0 1 5
1617 2 4.8 -9.4 0 0 0 0 1 5
1618 2 5 -9.4 0 0 0 0 1 5
1651 2 4.8 -9.2 0 0 0 0 1 5
1652 2 5 -9.2 0 0 0 0 1 5
1619 2 5.2 -9.4 0 0 0 0 1 5
1620 2 5.4 -9.4 0 0 0 0 1 5
1653 2 5.2 -9.2 0 0 0 0 1 5
1654 2 5.4 -9.2 0 0 0 0 1 5
1621 2 5.6 -9.4 0 0 0 0 1 5
1655 2 5.6 -9.2 0 0 0 0 1 5
1622 2 5.8 -9.4 0 0 0 0 1 5
1656 2 5.8 -9.2 0 0 0 0 1 5
1623 2 6 -9.4 0 0 0 0 1 5
1657 2 6 -9.2 0 0 0 0 1 5
1624 2 6.2 -9.4 0 0 0 0 1 5
1625 2 6.4 -9.4 0 0 0 0 1 5
1658 2 6.2 -9.2 0 0 0 0 1 5
1659 2 6.4 -9.2 0 0 0 0 1 5
1626 2 6.6 -9.4 0 0 0 0 1 5
1627 2 6.8 -9.4 0 0 0 0 1 5
1660 2 6.6 -9.2 0 0 0 0 1 5
1661 2 6.8 -9.2 0 0 0 0 1 5
1628 2 7 -9.4 0 0 0 0 1 5
1629 2 7.2 -9.4 0 0 0 0 1 5
1662 2 7 -9.2 0 0 0 0 1 5
1663 2 7.2 -9.2 0 0 0 0 1 5
1671 2 2 -9 0 0 0 0 1 5
1705 2 2 -8.8 0 0 0 0 1 5
1672 2 2.2 -9 0 0 0 0 1 5
1673 2 2.4 -9 0 0 0 0 1 5
1706 2 2.2 -8.8 0 0 0 0 1 5
1707 2 2.4 -8.8 0 0 0 0 1 5
1674 2 2.6 -9 0 0 0 0 1 5
1675 2 2.8 -9 0 0 0 0 1 5
1708 2 2.6 -8.8 0 0 0 0 1 5
1709 2 2.8 -8.8 0 0 0 0 1 5
1676 2 3 -9 0 0 0 0 1 5
1710 2 3 -8.8 0 0 0 0 1 5
1677 2 3.2 -9 0 0 0 0 1 5
1711 2 3.2 -8.8 0 0 0 0 1 5
1678 2 3.4 -9 0 0 0 0 1 5
1712 2 3.4 -8.8 0 0 0 0 1 5
1679 2 3.6 -9 0 0 0 0 1 5
1713 2 3.6 -8.8 0 0 0 0 1 5
1680 2 3.8 -9 0 0 0 0 1 5
1714 2 3.8 -8.8 0 0 0 0 1 5
1681 2 4 -9 0 0 0 0 1 5
1682 2 4.2 -9 0 0 0 0 1 5
1715 2 4 -8.8 0 0 0 0 1 5
1716 2 4.2 -8.8 0 0 0 0 1 5
1683 2 4.4 -9 0 0 0 0 1 5
1684 2 4.6 -9 0 0 0 0 1 5
1717 2 4.4 -8.8 0 0 0 0 1 5
1718 2 4.6 -8.8 0 0 0 0 1 5
1685 2 4.8 -9 0 0 0 0 1 5
1686 2 5 -9 0 0 0 0 1 5
1719 2 4.8 -8.8 0 0 0 0 1 5
1720 2 5 -8.8 0 0 0 0 1 5
1687 2 5.2 -9 0 0 0 0 1 5
1688 2 5.4 -9 0 0 0 0 1 5
1721 2 5.2 -8.8 0 0 0 0 1 5
1722 2 5.4 -8.8 0 0 0 0 1 5
1689 2 5.6 -9 0 0 0 0 1 5
1723 2 5.6 -8.8 0 0 0 0 1 5
1690 2 5.8 -9 0 0 0 0 1 5
1724 2 5.8 -8.8 0 0 0 0 1 5
1691 2 6 -9 0 0 0 0 1 5
1725 2 6 -8.8 0 0 0 0 1 5
1692 2 6.2 -9 0 0 0 0 1 5
1693 2 6.4 -9 0 0 0 0 1 5
1726 2 6.2 -8.8 0 0 0 0 1 5
1727 2 6.4 -8.8 0 0 0 0 1 5
1694 2 6.6 -9 0 0 0 0 1 5
1695 2 6.8 -9 0 0 0 0 1 5
1728 2 6.6 -8.8 0 0 0 0 1 5
1729 2 6.8 -8.8 0 0 0 0 1 5
1696 2 7 -9 0 0 0 0 1 5
1697 2 7.2 -9 0 0 0 0 1 5
1730 2 7 -8.8 0 0 0 0 1 5
1731 2 7.2 -8.8 0 0 0 0 1 5
1739 2 2 -8.6 0 0 0 0 1 5
1773 2 2 -8.4 0 0 0 0 1 5
1740 2 2.2 -8.6 0 0 0 0 1 5
1741 2 2.4 -8.6 0 0 0 0 1 5
1774 2 2.2 -8.4 0 0 0 0 1 5
1775 2 2.4 -8.4 0 0 0 0 1 5
1742 2 2.6 -8.6 0 0 0 0 1 5
1743 2 2.8 -8.6 0 0 0 0 1 5
1776 2 2.6 -8.4 0 0 0 0 1 5
1777 2 2.8 -8.4 0 0 0 0 1 5
1744 2 3 -8.6 0 0 0 0 1 5
1778 2 3 -8.4 0 0 0 0 1 5
1745 2 3.2 -8.6 0 0 0 0 1 5
1779 2 3.2 -8.4 0 0 0 0 1 5
1746 2 3.4 -8.6 0 0 0 0 1 5
1780 2 3.4 -8.4 0 0 0 0 1 5
1747 2 3.6 -8.6 0 0 0 0 1 5
1781 2 3.6 -8.4 0 0 0 0 1 5
1748 2 3.8 -8.6 0 0 0 0 1 5
1782 2 3.8 -8.4 0 0 0 0 1 5
1749 2 4 -8.6 0 0 0 0 1 5
1750 2 4.2 -8.6 0 0 0 0 1 5
1783 2 4 -8.4 0 0 0 0 1 5
1784 2 4.2 -8.4 0 0 0 0 1 5
1751 2 4.4 -8.6 0 0 0 0 1 5
1752 2 4.6 -8.6 0 0 0 0 1 5
1785 2 4.4 -8.4 0 0 0 0 1 5
1786 2 4.6 -8.4 0 0 0 0 1 5
1753 2 4.8 -8.6 0 0 0 0 1 5
1754 2 5 -8.6 0 0 0 0 1 5
1787 2 4.8 -8.4 0 0 0 0 1 5
1788 2 5 -8.4 0 0 0 0 1 5
1755 2 5.2 -8.6 0 0 0 0 1 5
1756 2 5.4 -8.6 0 0 0 0 1 5
1789 2 5.2 -8.4 0 0 0 0 1 5
1790 2 5.4 -8.4 0 0 0 0 1 5
1757 2 5.6 -8.6 0 0 0 0 1 5
1791 2 5.6 -8.4 0 0 0 0 1 5
1758 2 5.8 -8.6 0 0 0 0 1 5
1792 2 5.8 -8.4 0 0 0 0 1 5
1759 2 6 -8.6 0 0 0 0 1 5
1793 2 6 -8.4 0 0 0 0 1 5
1760 2 6.2 -8.6 0 0 0 0 1 5
1761 2 6.4 -8.6 0 0 0 0 1 5
1794 2 6.2 -8.4 0 0 0 0 1 5
1795 2 6.4 -8.4 0 0 0 0 1 5
1762 2 6.6 -8.6 0 0 0 0 1 5
1763 2 6.8 -8.6 0 0 0 0 1 5
1796 2 6.6 -8.4 0 0 0 0 1 5
1797 2 6.8 -8.4 0 0 0 0 1 5
1764 2 7 -8.6 0 0 0 0 1 5
1765 2 7.2 -8.6 0 0 0 0 1 5
1798 2 7 -8.4 0 0 0 0 1 5
1799 2 7.2 -8.4 0 0 0 0 1 5
1807 2 2 -8.2 0 0 0 0 1 5
1841 2 2 -8 0 0 0 0 1 5
1808 2 2.2 -8.2 0 0 0 0 1 5
1809 2 2.4 -8.2 0 0 0 0 1 5
1842 2 2.2 -8 0 0 0 0 1 5
1843 2 2.4 -8 0 0 0 0 1 5
1810 2 2.6 -8.2 0 0 0 0 1 5
1811 2 2.8 -8.2 0 0 0 0 1 5
1844 2 2.6 -8 0 0 0 0 1 5
1845 2 2.8 -8 0 0 0 0 1 5
1812 2 3 -8.2 0 0 0 0 1 5
1846 2 3 -8 0 0 0 0 1 5
1813 2 3.2 -8.2 0 0 0 0 1 5
1847 2 3.2 -8 0 0 0 0 1 5
1814 2 3.4 -8.2 0 0 0 0 1 5
1848 2 3.4 -8 0 0 0 0 1 5
1815 2 3.6 -8.2 0 0 0 0 1 5
1849 2 3.6 -8 0 0 0 0 1 5
1816 2 3.8 -8.2 0 0 0 0 1 5
1850 2 3.8 -8 0 0 0 0 1 5
1817 2 4 -8.2 0 0 0 0 1 5
1818 2 4.2 -8.2 0 0 0 0 1 5
1851 2 4 -8 0 0 0 0 1 5
1852 2 4.2 -8 0 0 0 0 1 5
1819 2 4.4 -8.2 0 0 0 0 1 5
1820 2 4.6 -8.2 0 0 0 0 1 5
1853 2 4.4 -8 0 0 0 0 1 5
1854 2 4.6 -8 0 0 0 0 1 5
1821 2 4.8 -8.2 0 0 0 0 1 5
1822 2 5 -8.2 0 0 0 0 1 5
1855 2 4.8 -8 0 0 0 0 1 5
1856 2 5 -8 0 0 0 0 1 5
1823 2 5.2 -8.2 0 0 0 0 1 5
1824 2 5.4 -8.2 0 0 0 0 1 5
1857 2 5.2 -8 0 0 0 0 1 5
1858 2 5.4 -8 0 0 0 0 1 5
1825 2 5.6 -8.2 0 0 0 0 1 5
1859 2 5.6 -8 0 0 0 0 1 5
1826 2 5.8 -8.2 0 0 0 0 1 5
1860 2 5.8 -8 0 0 0 0 1 5
1827 2 6 -8.2 0 0 0 0 1 5
1861 2 6 -8 0 0 0 0 1 5
1828 2 6.2 -8.2 0 0 0 0 1 5
1829 2 6.4 -8.2 0 0 0 0 1 5
1862 2 6.2 -8 0 0 0 0 1 5
1863 2 6.4 -8 0 0 0 0 1 5
1830 2 6.6 -8.2 0 0 0 0 1 5
1831 2 6.8 -8.2 0 0 0 0 1 5
1864 2 6.6 -8 0 0 0 0 1 5
1865 2 6.8 -8 0 0 0 0 1 5
1832 2 7 -8.2 0 0 0 0 1 5
1833 2 7.2 -8.2 0 0 0 0 1 5
1866 2 7 -8 0 0 0 0 1 5
1867 2 7.2 -8 0 0 0 0 1 5
1875 2 2 -7.8 0 0 0 0 1 5
1909 2 2 -7.6 0 0 0 0 1 5
1943 2 2 -7.4 0 0 0 0 0.999056 5
1876 2 2.2 -7.8 0 0 0 0 1 5
1877 2 2.4 -7.8 0 0 0 0 1 5
1910 2 2.2 -7.6 0 0 0 0 1 5
1911 2 2.4 -7.6 0 0 0 0 1 5
1944 2 2.2 -7.4 0 0 0 0 0.998983 5
1945 2 2.4 -7.4 0 0 0 0 1.0022 5
1878 2 2.6 -7.8 0 0 0 0 1 5
1879 2 2.8 -7.8 0 0 0 0 1 5
1912 2 2.6 -7.6 0 0 0 0 1 5
1913 2 2.8 -7.6 0 0 0 0 1 5
1946 2 2.6 -7.4 0 0 0 0 0.999796 5
1947 2 2.8 -7.4 0 0 0 0 0.998551 5
1880 2 3 -7.8 0 0 0 0 1 5
1914 2 3 -7.6 0 0 0 0 1 5
1948 2 3 -7.4 0 0 0 0 0.99963 5
1881 2 3.2 -7.8 0 0 0 0 1 5
1915 2 3.2 -7.6 0 0 0 0 1 5
1949 2 3.2 -7.4 0 0 0 0 1.00631 5
1882 2 3.4 -7.8 0 0 0 0 1 5
1916 2 3.4 -7.6 0 0 0 0 1 5
1950 2 3.4 -7.4 0 0 0 0 0.999888 5
1883 2 3.6 -7.8 0 0 0 0 1 5
1917 2 3.6 -7.6 0 0 0 0 1 5
1951 2 3.6 -7.4 0 0 0 0 0.991728 5
1884 2 3.8 -7.8 0 0 0 0 1 5
1918 2 3.8 -7.6 0 0 0 0 1 5
1952 2 3.8 -7.4 0 0 0 0 1.00211 5
1885 2 4 -7.8 0 0 0 0 1 5
1886 2 4.2 -7.8 0 0 0 0 1 5
1919 2 4 -7.6 0 0 0 0 1 5
1920 2 4.2 -7.6 0 0 0 0 1 5
1953 2 4 -7.4 0 0 0 0 1.02064 5
1954 2 4.2 -7.4 0 0 0 0 1.02304 5
1887 2 4.4 -7.8 0 0 0 0 1 5
1888 2 4.6 -7.8 0 0 0 0 1 5
1921 2 4.4 -7.6 0 0 0 0 1 5
1922 2 4.6 -7.6 0 0 0 0 1 5
1955 2 4.4 -7.4 0 0 0 0 1.02456 5
1956 2 4.6 -7.4 0 0 0 0 1.02182 5
1889 2 4.8 -7.8 0 0 0 0 1 5
1890 2 5 -7.8 0 0 0 0 1 5
1923 2 4.8 -7.6 0 0 0 0 1 5
1924 2 5 -7.6 0 0 0 0 1 5
1957 2 4.8 -7.4 0 0 0 0 1.02069 5
1958 2 5 -7.4 0 0 0 0 1.02057 5
1891 2 5.2 -7.8 0 0 0 0 1 5
1892 2 5.4 -7.8 0 0 0 0 1 5
1925 2 5.2 -7.6 0 0 0 0 1 5
1926 2 5.4 -7.6 0 0 0 0 1 5
1959 2 5.2 -7.4 0 0 0 0 1.02037 5
1960 2 5.4 -7.4 0 0 0 0 1.02035 5
1893 2 5.6 -7.8 0 0 0 0 1 5
1927 2 5.6 -7.6 0 0 0 0 1 5
1961 2 5.6 -7.4 0 0 0 0 1.0204 5
1894 2 5.8 -7.8 0 0 0 0 1 5
1928 2 5.8 -7.6 0 0 0 0 1 5
1962 2 5.8 -7.4 0 0 0 0 1.02037 5
1895 2 6 -7.8 0 0 0 0 1 5
1929 2 6 -7.6 0 0 0 0 1 5
1963 2 6 -7.4 0 0 0 0 1.02042 5
1896 2 6.2 -7.8 0 0 0 0 1 5
1897 2 6.4 -7.8 0 0 0 0 1 5
1930 2 6.2 -7.6 0 0 0 0 1 5
1931 2 6.4 -7.6 0 0 0 0 1 5
1964 2 6.2 -7.4 0 0 0 0 1.0205 5
1965 2 6.4 -7.4 0 0 0 0 1.02057 5
1898 2 6.6 -7.8 0 0 0 0 1 5
1899 2 6.8 -7.8 0 0 0 0 1 5
1932 2 6.6 -7.6 0 0 0 0 1 5
1933 2 6.8 -7.6 0 0 0 0 1 5
1966 2 6.6 -7.4 0 0 0 0 1.02061 5
1967 2 6.8 -7.4 0 0 0 0 1.02066 5
1900 2 7 -7.8 0 0 0 0 1 5
1901 2 7.2 -7.8 0 0 0 0 1 5
1934 2 7 -7.6 0 0 0 0 1 5
1935 2 7.2 -7.6 0 0 0 0 1 5
1968 2 7 -7.4 0 0 0 0 1.02046 5
1969 2 7.2 -7.4 0 0 0 0 1.02035 5
1977 2 2 -7.2 0 0 0 0 1.00056 5
2011 2 2 -7 0 0 0 0 1.001 5
1978 2 2.2 -7.2 0 0 0 0 0.998188 5
1979 2 2.4 -7.2 0 0 0 0 1.00051 5
2012 2 2.2 -7 0 0 0 0 0.998832 5
2013 2 2.4 -7 0 0 0 0 0.999899 5
1980 2 2.6 -7.2 0 0 0 0 0.999891 5
1981 2 2.8 -7.2 0 0 0 0 0.999601 5
2014 2 2.6 -7 0 0 0 0 0.99997 5
2015 2 2.8 -7 0 0 0 0 0.999867 5
1982 2 3 -7.2 0 0 0 0 0.999996 5
2016 2 3 -7 0 0 0 0 1.00001 5
1983 2 3.2 -7.2 0 0 0 0 1.00118 5
2017 2 3.2 -7 0 0 0 0 1.00041 5
1984 2 3.4 -7.2 0 0 0 0 0.999791 5
2018 2 3.4 -7 0 0 0 0 0.999962 5
1985 2 3.6 -7.2 0 0 0 0 0.999187 5
2019 2 3.6 -7 0 0 0 0 1.00049 5
1986 2 3.8 -7.2 0 0 0 0 1.00632 5
2020 2 3.8 -7 0 0 0 0 1.00543 5
1987 2 4 -7.2 0 0 0 0 1.01398 5
1988 2 4.2 -7.2 0 0 0 0 1.02158 5
2021 2 4 -7 0 0 0 0 1.01323 5
2022 2 4.2 -7 0 0 0 0 1.02196 5
1989 2 4.4 -7.2 0 0 0 0 1.02548 5
1990 2 4.6 -7.2 0 0 0 0 1.02263 5
2023 2 4.4 -7 0 0 0 0 1.02612 5
2024 2 4.6 -7 0 0 0 0 1.02333 5
1991 2 4.8 -7.2 0 0 0 0 1.02106 5
1992 2 5 -7.2 0 0 0 0 1.0209 5
2025 2 4.8 -7 0 0 0 0 1.02154 5
2026 2 5 -7 0 0 0 0 1.0213 5
1993 2 5.2 -7.2 0 0 0 0 1.02084 5
1994 2 5.4 -7.2 0 0 0 0 1.02081 5
2027 2 5.2 -7 0 0 0 0 1.02125 5
2028 2 5.4 -7 0 0 0 0 1.02118 5
1995 2 5.6 -7.2 0 0 0 0 1.02076 5
2029 2 5.6 -7 0 0 0 0 1.02108 5
1996 2 5.8 -7.2 0 0 0 0 1.02073 5
2030 2 5.8 -7 0 0 0 0 1.02104 5
1997 2 6 -7.2 0 0 0 0 1.02074 5
2031 2 6 -7 0 0 0 0 1.02103 5
1998 2 6.2 -7.2 0 0 0 0 1.02079 5
1999 2 6.4 -7.2 0 0 0 0 1.02083 5
2032 2 6.2 -7 0 0 0 0 1.02105 5
2033 2 6.4 -7 0 0 0 0 1.02107 5
2000 2 6.6 -7.2 0 0 0 0 1.02086 5
2001 2 6.8 -7.2 0 0 0 0 1.02088 5
2034 2 6.6 -7 0 0 0 0 1.02109 5
2035 2 6.8 -7 0 0 0 0 1.02108 5
2002 2 7 -7.2 0 0 0 0 1.0208 5
2003 2 7.2 -7.2 0 0 0 0 1.02071 5
2036 2 7 -7 0 0 0 0 1.02105 5
2037 2 7.2 -7 0 0 0 0 1.02102 5
11880 1 0.439867 -6.74606 0.02 0 0 0 1 2
11881 1 0.631906 -6.74071 0.02 0 0 0 1 2
11882 1 0.822119 -6.73853 0.02 0 0 0 1 2
11883 1 0.436833 -6.55135 0.02 0 0 0 1 2
11884 1 0.619803 -6.54387 0.02 0 0 0 1 2
11885 1 0.796394 -6.52885 0.02 0 0 0 1 2
11886 1 1.01073 -6.73888 0.02 0 0 0 1 2
11887 1 1.1972 -6.73265 0.02 0 -4.89229e-14 -5.46393e-14 1 2
11888 1 0.975772 -6.545 0.02 0 0 0 1 2
11889 1 1.16548 -6.54222 0.02 0 0 0 1 2
11890 1 1.38345 -6.73781 0.02 0 -1.83026e-07 -1.04236e-07 1 2
11891 1 1.57755 -6.75088 0.02 0 -0.00017425 -6.98027e-05 1 2
11892 1 1.37409 -6.55789 0.02 0 -2.03749e-10 -8.79926e-11 1 2
11893 1 1.5837 -6.5675 0.02 0 -1.33253e-06 5.88028e-06 1 2
11894 1 1.7805 -6.75403 0.02 0 -0.0021229 -0.000574386 1 2
11895 1 1.9857 -6.7556 0.02 0 -0.00373065 -0.000593796 1 2
11896 1 1.78478 -6.57252 0.02 0 -6.02835e-05 6.32621e-05 1 2
11897 1 1.98708 -6.57289 0.02 0 -1.13162e-05 0.000262663 1 2
11545 1 2.40952 -6.55978 0.02 0 0.000184682 0.000479541 1 2
11898 1 2.18725 -6.74887 0.02 0 -0.00318443 -0.000510154 1 2
11899 1 2.39035 -6.73874 0.02 0 -0.00254958 -0.000519718 1 2
11900 1 2.19778 -6.56956 0.02 0 9.87707e-05 0.000456391 1 2
11544 1 2.59659 -6.75993 0.02 0 -0.00312844 -0.000448185 1 2
11546 1 2.6102 -6.56879 0.02 0 0.000108505 0.000398192 1 2
11547 1 2.79703 -6.73563 0.02 0 -0.00234976 -0.00041692 1 2
11549 1 2.81296 -6.55292 0.02 0 0.000142396 0.000405093 1 2
11548 1 2.99369 -6.75328 0.02 0 -0.00303129 -0.000482176 1 2
11550 1 3.01781 -6.5679 0.02 0 0.000123613 0.000475784 1 2
11551 1 3.19193 -6.73604 0.02 0 -0.00250976 -0.000551883 1 2
11553 1 3.23091 -6.56301 0.02 0 0.000127712 0.000565033 1 2
11552 1 3.39818 -6.76867 0.02 0 -0.00327211 -0.000492674 1 2
11554 1 3.42982 -6.58096 0.02 0 1.58724e-05 0.000501541 1 2
11555 1 3.60654 -6.73157 0.02 0 -0.00248413 -0.000236853 1 2
11557 1 3.62808 -6.55022 0.02 0 -0.000169973 0.000458153 1 2
11556 1 3.80272 -6.74733 0.02 0 -0.00529893 -0.000408525 1 2
11558 1 3.83255 -6.56511 0.02 0 -0.00214397 0.000499657 1 2
11559 1 3.99969 -6.75596 0.02 0 -0.0107617 0.000760168 1.00268 2
11561 1 4.00001 -6.58563 0.0186875 0.000118866 -0.00524992 0.000475463 1.01742 0
11560 1 4.072 -6.78556 0.00712009 -0.000487697 0.000893378 3.50373e-06 1.02789 0
11562 1 4.13555 -6.58488 0.0122206 0.00226466 0.000494821 0.000129772 1.02791 0
11162 1 4.21295 -6.724 0.00764285 0.000435448 0.000359655 2.45412e-05 1.03116 0
11161 1 4.22085 -6.4596 0.0128375 0.00295602 0.000154278 2.47369e-05 1.02881 0
11163 1 4.33711 -6.58685 0.0111909 0.00227166 8.9463e-05 -6.6635e-07 1.02765 0
11164 1 4.3601 -6.7724 0.005815 -0.000278427 7.18651e-05 1.26939e-05 1.02961 0
11166 1 4.55352 -6.46658 0.0128838 0.00271314 -1.12673e-06 -1.56526e-05 1.02318 0
11167 1 4.49702 -6.63357 0.00975174 0.0014375 -6.37665e-06 -1.19484e-05 1.02378 0
11168 1 4.67768 -6.58561 0.00980342 0.00167548 1.20527e-06 -8.39482e-06 1.02199 0
11172 1 4.58102 -6.77094 0.00559301 0.000301085 -8.06037e-06 -5.15439e-06 1.02344 0
11322 1 4.83763 -6.59454 0.00841651 0.00129589 3.61614e-06 -7.48298e-06 1.02167 0
11323 1 4.76462 -6.75921 0.00484268 0.000303435 1.00409e-06 -4.90823e-06 1.02217 0
10845 1 4.99499 -6.59687 0.00734171 0.000964099 2.45951e-06 -7.04311e-06 1.0216 0
10846 1 5.19865 -6.58951 0.00650622 0.000702725 3.89266e-07 -5.80294e-06 1.02136 0
10850 1 4.95849 -6.77101 0.00360234 8.88237e-05 1.83069e-06 -4.19478e-06 1.02217 0
10857 1 5.14249 -6.74356 0.00351638 9.83784e-05 6.6238e-07 -3.89944e-06 1.02169 0
10862 1 5.37235 -6.63374 0.00506668 0.000393874 -1.34473e-06 -4.13342e-06 1.02112 0
10507 1 5.32289 -6.79543 0.00244627 -0.000146668 -3.54811e-07 -2.59014e-06 1.02186 0
10854 1 5.63165 -6.52146 0.00629791 0.000577277 -4.78224e-06 -3.16553e-06 1.02102 0
10511 1 5.53083 -6.64451 0.00443369 0.000311684 -2.78755e-06 -3.11147e-06 1.02097 0
10519 1 5.59823 -6.7772 0.00225402 -0.000109834 -1.7821e-06 -1.7039e-06 1.02153 0
10503 1 5.77444 -6.61762 0.00441884 0.000286463 -4.9378e-06 -1.96366e-06 1.02088 0
10174 1 5.94832 -6.61309 0.00422725 0.000239991 -6.21801e-06 -1.05721e-06 1.02083 0
10189 1 5.7937 -6.77999 0.00203216 -0.000137143 -2.62385e-06 -1.03971e-06 1.02144 0
10178 1 6.11985 -6.61842 0.00391828 0.000181346 -7.16253e-06 -1.30259e-07 1.02083 0
3109 1 6.02518 -6.78392 0.00184952 -0.000159672 -3.56508e-06 -3.71718e-07 1.02141 0
3101 1 6.29492 -6.60462 0.00394937 0.000160999 -8.43266e-06 8.32602e-07 1.02084 0
3103 1 6.4707 -6.60407 0.00381487 0.000132596 -9.31104e-06 1.82949e-06 1.02083 0
3113 1 6.25307 -6.77458 0.00181317 -0.000152424 -4.64433e-06 3.56303e-07 1.02141 0
3116 1 6.47066 -6.76775 0.00178901 -0.000156618 -5.63342e-06 1.08363e-06 1.02139 0
3105 1 6.68923 -6.5959 0.00380634 9.07636e-05 -1.01981e-05 3.1053e-06 1.02083 0
3117 1 6.66209 -6.76272 0.0017924 -0.000165182 -6.4549e-06 1.80618e-06 1.02139 0
3111 1 6.87725 -6.58122 0.00392983 4.82663e-05 -1.07131e-05 4.32508e-06 1.02082 0
3118 1 6.8526 -6.74662 0.00193247 -0.000160601 -7.30904e-06 2.7157e-06 1.02134 0
3106 1 7.05651 -6.56279 0.0041214 -9.82062e-07 -1.06016e-05 5.39188e-06 1.02079 0
3119 1 7.03347 -6.74415 0.00192276 -0.000193033 -7.47407e-06 3.51383e-06 1.0213 0
3114 1 7.22079 -6.59547 0.00370296 -5.73942e-05 -9.25104e-06 5.55405e-06 1.0208 0
10705 1 6.34977 -0.0170352 0.0148586 0.000277131 5.84569e-06 6.28474e-06 1.02046 0
3121 1 7.21767 -6.78596 0.00156396 -0.000315605 -6.56572e-06 3.53738e-06 1.02145 0
11901 1 0.473388 -6.12486 0.02 0 0 0 1 2
11902 1 0.450724 -6.34641 0.02 0 0 0 1 2
11903 1 0.626077 -6.3224 0.02 0 0 0 1 2
11904 1 0.801 -6.31438 0.02 0 0 0 1 2
11905 1 0.815707 -6.10319 0.02 0 0 0 1 2
11906 1 0.978088 -6.33691 0.02 0 0 0 1 2
11907 1 1.1594 -6.34124 0.02 0 0 0 1 2
11908 1 0.995939 -6.12551 0.02 0 0 0 1 2
11909 1 1.18309 -6.14134 0.02 0 0 0 1 2
11910 1 1.34549 -6.37765 0.02 0 0 0 1 2
11911 1 1.55177 -6.39041 0.02 0 2.28819e-10 4.73847e-10 1 2
11912 1 1.37231 -6.18839 0.02 0 0 0 1 2
11913 1 1.57124 -6.20886 0.02 0 3.83267e-12 1.10809e-11 1 2
11914 1 1.77648 -6.39636 0.02 0 4.10034e-06 7.34011e-06 1 2
11915 1 2.00914 -6.39894 0.02 0 5.2412e-05 0.000127983 1 2
11916 1 1.77196 -6.21492 0.02 0 8.78318e-08 2.18218e-07 1 2
11917 1 1.97316 -6.22262 0.02 0 3.05816e-06 6.23387e-06 1 2
11563 1 2.43962 -6.37653 0.02 0 9.8336e-05 0.000169206 1 2
11918 1 2.17855 -6.21365 0.02 0 9.19171e-06 1.71243e-05 1 2
11919 1 2.23074 -6.39272 0.02 0 0.000104456 0.000194523 1 2
11920 1 2.38275 -6.19238 0.02 0 7.67021e-06 1.46531e-05 1 2
11564 1 2.58905 -6.18885 0.02 0 6.69435e-06 1.27386e-05 1 2
11565 1 2.64012 -6.37813 0.02 0 9.2382e-05 0.000153874 1 2
11568 1 2.79193 -6.1736 0.02 0 4.96384e-06 9.62672e-06 1 2
11566 1 2.83588 -6.36413 0.02 0 7.52491e-05 0.000129258 1 2
11567 1 3.03232 -6.38198 0.02 0 9.47535e-05 0.000151628 1 2
11569 1 2.99377 -6.19033 0.02 0 6.68331e-06 1.25697e-05 1 2
11570 1 3.2288 -6.38001 0.02 0 9.39182e-05 0.000141208 1 2
11572 1 3.19557 -6.1913 0.02 0 6.6885e-06 1.29861e-05 1 2
11573 1 3.40406 -6.20515 0.02 0 7.4077e-06 1.65049e-05 1 2
11571 1 3.42706 -6.39143 0.02 0 0.000110165 0.000148658 1 2
11574 1 3.6217 -6.36654 0.02 0 -0.000221305 9.94759e-05 1 2
11576 1 3.63001 -6.18795 0.02 0 -0.000361328 5.44681e-06 1 2
11575 1 3.81645 -6.375 0.02 0 -0.00204445 3.77211e-05 1 2
11577 1 3.85468 -6.19302 0.02 0 -0.00261823 0.000114358 1 2
11578 1 3.99994 -6.41366 0.02 0 -0.00466518 0.000249641 1.00592 2
11580 1 3.99985 -6.22174 0.02 0 -0.00287614 0.000359457 1.01743 2
11579 1 4.08074 -6.35491 0.0136584 0.00156749 9.93752e-05 0.000211899 1.02408 0
11581 1 4.16037 -6.17277 0.01418 0.00224183 -8.69069e-05 -7.42997e-05 1.02676 0
11165 1 4.40537 -6.42941 0.0137661 0.00326868 2.26851e-05 -2.17482e-05 1.02555 0
11176 1 4.27271 -6.30198 0.0139233 0.00336013 -1.53422e-06 1.4006e-05 1.02747 0
11175 1 4.31625 -6.11734 0.0149297 0.00398021 1.6216e-05 -2.10734e-05 1.02555 0
11177 1 4.443 -6.2599 0.015068 0.00397522 8.61649e-06 -1.46737e-05 1.02418 0
11179 1 4.47959 -6.07692 0.0154876 0.00449415 1.08099e-05 -7.14364e-06 1.02295 0
11178 1 4.59801 -6.23502 0.0148082 0.00391347 8.31482e-06 -1.09588e-05 1.02269 0
11169 1 4.68683 -6.38116 0.0130986 0.00297526 3.72071e-06 -1.16552e-05 1.02246 0
11171 1 4.84765 -6.42832 0.011365 0.0022294 4.01794e-06 -9.54454e-06 1.0222 0
11170 1 4.8065 -6.24768 0.0135797 0.00334873 4.93278e-06 -9.49719e-06 1.02239 0
11181 1 4.70813 -6.10717 0.0148301 0.00422096 5.89696e-06 -8.52644e-06 1.02233 0
11182 1 4.87886 -6.05399 0.0143363 0.00393818 3.52508e-06 -7.44424e-06 1.02228 0
11173 1 4.96982 -6.20352 0.0130211 0.00305234 2.55674e-06 -8.26076e-06 1.02231 0
11324 1 5.10589 -6.45874 0.0092882 0.00142342 1.05036e-06 -7.68264e-06 1.02183 0
11174 1 5.00123 -6.36107 0.0112546 0.00217296 2.15117e-06 -8.71143e-06 1.02217 0
11185 1 5.04757 -6.0015 0.0139717 0.00360125 2.25628e-06 -5.384e-06 1.02211 0
11186 1 5.12262 -6.15331 0.0127095 0.00280292 1.05551e-06 -6.50859e-06 1.02208 0
11328 1 5.27712 -6.0333 0.0129986 0.00281834 -4.36558e-07 -3.49405e-06 1.02178 0
11326 1 5.26061 -6.40111 0.00936733 0.00137378 -9.01696e-07 -6.28753e-06 1.02167 0
11325 1 5.2389 -6.24554 0.0113356 0.00207653 -5.97459e-07 -6.04231e-06 1.02185 0
11327 1 5.39528 -6.14069 0.0117131 0.00212312 -2.53225e-06 -3.5875e-06 1.02162 0
10849 1 5.40208 -6.48062 0.00763456 0.000876673 -2.4368e-06 -4.91044e-06 1.02131 0
10847 1 5.43318 -6.29619 0.00996923 0.00147218 -3.27983e-06 -4.42116e-06 1.02152 0
11332 1 5.53976 -6.05499 0.0119501 0.00209417 -4.31166e-06 -1.46959e-06 1.02146 0
10853 1 5.57077 -6.38044 0.00844257 0.00100632 -4.97557e-06 -3.56593e-06 1.02128 0
10848 1 5.61906 -6.19968 0.0103633 0.00148074 -5.81712e-06 -2.14408e-06 1.0214 0
10851 1 5.81525 -6.12067 0.0105587 0.0013929 -8.09954e-06 5.57197e-09 1.02127 0
10852 1 5.74914 -6.3003 0.00886824 0.0010126 -7.39868e-06 -1.78714e-06 1.02124 0
10502 1 5.8073 -6.45492 0.0068016 0.000601017 -7.16477e-06 -1.90276e-06 1.02103 0
10858 1 5.92875 -6.27895 0.00864541 0.000865952 -9.29269e-06 -2.75627e-07 1.02116 0
10855 1 5.99043 -6.1107 0.0102227 0.001163 -9.73884e-06 1.31685e-06 1.02119 0
10859 1 6.11251 -6.22183 0.00885986 0.000793886 -1.07782e-05 1.44056e-06 1.02112 0
10861 1 5.98428 -6.43421 0.00668967 0.000525094 -8.87906e-06 -5.78266e-07 1.02098 0
10504 1 6.13856 -6.43379 0.00641926 0.000434828 -9.96093e-06 5.1056e-07 1.02093 0
10860 1 6.3591 -6.0881 0.0097365 0.00076073 -1.15416e-05 4.04525e-06 1.02105 0
10864 1 6.26146 -6.25531 0.00823977 0.000602649 -1.1546e-05 2.39931e-06 1.02105 0
10512 1 6.29913 -6.43221 0.00620694 0.000356259 -1.08666e-05 1.68082e-06 1.0209 0
10501 1 6.43315 -6.23379 0.00821075 0.000497085 -1.2122e-05 3.84622e-06 1.02101 0
10882 1 6.58865 -6.08008 0.0095029 0.000538222 -1.17295e-05 5.51299e-06 1.02099 0
10508 1 6.59509 -6.24952 0.00786321 0.000364023 -1.23536e-05 4.88201e-06 1.02097 0
10515 1 6.45876 -6.41579 0.0062147 0.00029947 -1.16929e-05 2.95988e-06 1.02089 0
10509 1 6.79469 -6.15303 0.00862602 0.000293975 -1.17931e-05 6.3882e-06 1.02096 0
10516 1 6.73851 -6.31324 0.00707954 0.00022646 -1.24116e-05 5.44603e-06 1.02092 0
10173 1 6.61224 -6.46208 0.00553983 0.000198543 -1.18046e-05 3.72055e-06 1.02084 0
10514 1 6.95449 -6.20664 0.00800054 0.000141526 -1.14665e-05 6.9743e-06 1.02092 0
10182 1 6.83449 -6.42534 0.00580665 0.000126351 -1.21068e-05 5.33496e-06 1.02083 0
10181 1 7.00013 -6.38472 0.00616629 5.6472e-05 -1.17148e-05 6.43586e-06 1.02083 0
10518 1 7.12852 -6.20694 0.00790405 2.07547e-05 -1.02402e-05 7.44515e-06 1.02089 0
10177 1 7.32043 -6.21882 0.00771278 -9.53702e-05 -8.17164e-06 7.4755e-06 1.02085 0
10185 1 7.16958 -6.39196 0.00603283 -3.01111e-05 -1.04567e-05 6.97829e-06 1.02079 0
10698 1 7.02577 -0.28703 0.0146407 -3.47426e-05 -4.23745e-06 6.09031e-06 1.02054 0
10186 1 7.33497 -6.3824 0.00608745 -0.000100784 -8.61754e-06 7.08755e-06 1.02077 0
11921 1 0.640577 -6.08372 0.02 0 0 0 1 2
11922 1 0.465214 -5.88435 0.02 0 0 0 1 2
11923 1 0.64154 -5.86482 0.02 0 0 0 1 2
11924 1 0.823296 -5.88612 0.02 0 0 0 1 2
11925 1 0.471525 -5.65275 0.02 0 0 0 1 2
11926 1 0.660397 -5.65753 0.02 0 0 0 1 2
11927 1 0.852934 -5.67751 0.02 0 0 0 1 2
11928 1 1.00759 -5.91883 0.02 0 0 0 1 2
11929 1 1.20013 -5.94538 0.02 0 0 0 1 2
11930 1 1.04518 -5.719 0.02 0 0 0 1 2
11931 1 1.24297 -5.75573 0.02 0 0 0 1 2
11932 1 1.39286 -5.99199 0.02 0 0 0 1 2
11933 1 1.5879 -6.01992 0.02 0 6.22534e-13 9.63326e-11 1 2
11934 1 1.43302 -5.79335 0.02 0 0 0 1 2
11935 1 1.62019 -5.8254 0.02 0 0 0 1 2
11936 1 1.78612 -6.0226 0.02 0 3.34472e-10 2.98551e-09 1 2
11937 1 1.98442 -6.03526 0.02 0 2.97928e-08 7.79752e-08 1 2
11938 1 1.8107 -5.82321 0.02 0 1.06961e-12 1.87302e-11 1 2
11939 1 2.00296 -5.84213 0.02 0 1.26585e-11 3.10535e-11 1 2
11940 1 2.18421 -6.02109 0.02 0 9.61769e-08 2.45989e-07 1 2
11941 1 2.3796 -5.99468 0.02 0 4.23901e-08 1.17672e-07 1 2
11942 1 2.19933 -5.82169 0.02 0 1.23092e-10 3.79688e-10 1 2
11943 1 2.39343 -5.79018 0.02 0 1.97665e-11 7.43312e-11 1 2
11582 1 2.57618 -5.99591 0.02 0 4.28988e-08 1.28762e-07 1 2
11583 1 2.58869 -5.79861 0.02 0 2.87242e-11 1.1212e-10 1 2
11584 1 2.78362 -5.9881 0.02 0 2.50501e-08 7.22806e-08 1 2
11586 1 2.79129 -5.80404 0.02 0 3.91039e-11 1.48957e-10 1 2
11585 1 3.00125 -6.00104 0.02 0 4.87241e-08 1.32604e-07 1 2
11587 1 2.99768 -5.81115 0.02 0 3.45436e-11 1.18877e-10 1 2
11588 1 3.21454 -6.003 0.02 0 4.26465e-08 1.09378e-07 1 2
11590 1 3.20421 -5.81359 0.02 0 6.52839e-11 2.12199e-10 1 2
11589 1 3.42541 -6.0243 0.02 0 -2.75849e-06 4.71619e-07 1 2
11591 1 3.41977 -5.84316 0.02 0 -9.29853e-07 8.58543e-08 1 2
11592 1 3.44587 -5.66559 0.02 0 -3.19471e-06 6.90157e-08 1 2
11593 1 3.62814 -6.00969 0.02 0 -0.000353018 1.49744e-05 1 2
11595 1 3.66826 -5.83787 0.02 0 -0.000627245 8.92844e-06 1 2
11597 1 3.6565 -5.66211 0.02 0 -0.000567535 1.43178e-05 1 2
11594 1 3.83653 -6.01202 0.02 0 -0.00241212 5.75373e-05 1 2
11596 1 3.91984 -5.85177 0.02 0 -0.00438796 0.000185903 1 2
11598 1 3.87126 -5.68099 0.02 0 -0.00380118 0.000137377 1 2
11599 1 4.00031 -6.04779 0.0189216 0.000173388 -0.0043135 0.000693551 1.01778 0
11603 1 4.03001 -5.67153 0.013069 0.00117705 3.52312e-06 3.2594e-07 1.02106 0
11601 1 4.03621 -5.85775 0.0138879 0.00127036 2.7508e-05 3.09437e-06 1.02088 0
11600 1 4.16734 -5.98806 0.0137731 0.00308326 0.000116678 1.77529e-05 1.02567 0
11180 1 4.60656 -5.97454 0.0153561 0.004675 5.68825e-06 -6.77862e-06 1.02214 0
11189 1 4.32893 -5.93879 0.0147753 0.00423331 3.43782e-05 4.36444e-06 1.024 0
11191 1 4.35493 -5.73487 0.0145789 0.00402431 5.18263e-06 3.87546e-08 1.02255 0
11602 1 4.19796 -5.79931 0.0129378 0.00312783 2.00227e-05 1.62598e-05 1.02454 0
11190 1 4.47595 -5.86375 0.0152972 0.00458889 6.9651e-06 -2.67499e-06 1.02212 0
11192 1 4.50685 -5.65506 0.0150715 0.00436153 3.44646e-06 -1.33909e-06 1.02152 0
11183 1 4.76555 -5.91328 0.0150646 0.00455252 4.27281e-06 -5.84312e-06 1.02213 0
11193 1 4.63208 -5.78229 0.015276 0.00470619 4.74025e-06 -3.54787e-06 1.0218 0
11194 1 4.66818 -5.59087 0.0152155 0.00450321 4.3829e-06 4.3451e-07 1.02161 0
11195 1 4.79689 -5.72589 0.0151762 0.00460929 4.35397e-06 -2.09763e-06 1.02195 0
11184 1 4.928 -5.86357 0.0147945 0.00426829 3.53517e-06 -4.13871e-06 1.02211 0
11196 1 4.9488 -5.6524 0.0151337 0.00439761 4.29363e-06 1.1964e-07 1.02191 0
11188 1 5.18757 -5.90091 0.0140437 0.00347147 1.24255e-06 -2.48228e-06 1.02184 0
11187 1 5.07016 -5.77851 0.0147532 0.00403453 3.07382e-06 -1.58311e-06 1.02191 0
11199 1 5.09842 -5.56407 0.0151859 0.00414088 3.92718e-06 2.44261e-06 1.02171 0
11200 1 5.21656 -5.69012 0.0147803 0.00378469 2.03385e-06 1.00929e-06 1.02167 0
11329 1 5.44829 -5.92308 0.0131824 0.00269952 -2.38562e-06 -6.64929e-07 1.02151 0
11330 1 5.3408 -5.80933 0.0140894 0.00325999 -2.5533e-07 7.27397e-08 1.0216 0
11334 1 5.37703 -5.61984 0.0147607 0.00348141 3.16936e-07 2.88428e-06 1.02147 0
10865 1 5.69967 -6.00624 0.0118712 0.00190616 -6.29252e-06 1.7106e-07 1.02134 0
11331 1 5.52134 -5.72353 0.0140912 0.00296934 -2.38751e-06 2.20703e-06 1.0214 0
11333 1 5.62467 -5.8486 0.0131764 0.00246169 -4.54352e-06 1.29383e-06 1.02135 0
10867 1 5.82141 -5.88523 0.0124673 0.00196468 -7.18124e-06 2.00272e-06 1.02125 0
10866 1 5.75188 -5.72204 0.0136301 0.00243647 -5.54908e-06 3.16034e-06 1.02124 0
10856 1 6.16723 -6.03278 0.0105649 0.00108969 -1.05841e-05 3.05406e-06 1.02112 0
10869 1 5.96658 -5.95053 0.0116556 0.00155717 -8.87222e-06 2.31627e-06 1.02119 0
10868 1 5.93173 -5.73367 0.0132234 0.00204181 -7.4955e-06 3.6924e-06 1.02116 0
10870 1 6.10466 -5.85742 0.0120874 0.0015091 -9.32975e-06 3.66682e-06 1.02111 0
10871 1 6.08551 -5.67608 0.0133056 0.00183644 -8.31989e-06 4.5018e-06 1.02108 0
10873 1 6.26396 -5.77897 0.0123774 0.0013742 -9.55693e-06 4.73796e-06 1.02104 0
10875 1 6.39661 -5.6262 0.013175 0.00135579 -9.07229e-06 5.42304e-06 1.02098 0
10874 1 6.32405 -5.93206 0.0111437 0.00105122 -1.05788e-05 4.50788e-06 1.02105 0
10877 1 6.46374 -5.78454 0.0120606 0.00106076 -9.88841e-06 5.49436e-06 1.02098 0
10863 1 6.51787 -5.93916 0.010811 0.000789255 -1.08245e-05 5.5099e-06 1.02099 0
10878 1 6.63801 -5.71173 0.0123642 0.000892621 -9.45724e-06 6.04449e-06 1.02093 0
10505 1 6.76347 -5.99592 0.0100632 0.000453863 -1.09281e-05 6.46615e-06 1.02095 0
10881 1 6.70072 -5.85566 0.0112616 0.000663254 -1.01539e-05 6.32241e-06 1.02094 0
10883 1 6.81991 -5.6749 0.0124469 0.000674403 -9.0178e-06 6.33657e-06 1.02089 0
10522 1 6.90411 -5.83343 0.0112494 0.000444485 -9.47988e-06 6.82347e-06 1.0209 0
10884 1 7.00222 -5.6633 0.0123988 0.000445014 -8.45704e-06 6.47107e-06 1.02086 0
10506 1 6.94651 -6.00507 0.00983603 0.000270455 -1.03013e-05 7.0603e-06 1.02092 0
10523 1 7.09412 -5.82256 0.0112047 0.000243066 -8.50806e-06 7.00927e-06 1.02086 0