ITEM: TIMESTEP
93000
ITEM: NUMBER OF ATOMS
13378
ITEM: BOX BOUNDS ff ff pp
0.0000000000000000e+00 2.2000000000000000e+01
-1.0000000000000000e+01 1.0000000000000000e+01
-2.0000000000000000e-02 2.0000000000000000e-02
ITEM: ATOMS id type x y vx vy fx fy c_den c_phase
1501 2 2 -10 0 0 0 0 1 5
1535 2 2 -9.8 0 0 0 0 1 5
1569 2 2 -9.6 0 0 0 0 1 5
1502 2 2.2 -10 0 0 0 0 1 5
1503 2 2.4 -10 0 0 0 0 1 5
1536 2 2.2 -9.8 0 0 0 0 1 5
1537 2 2.4 -9.8 0 0 0 0 1 5
1570 2 2.2 -9.6 0 0 0 0 1 5
1571 2 2.4 -9.6 0 0 0 0 1 5
1504 2 2.6 -10 0 0 0 0 1 5
1505 2 2.8 -10 0 0 0 0 1 5
1538 2 2.6 -9.8 0 0 0 0 1 5
1539 2 2.8 -9.8 0 0 0 0 1 5
1572 2 2.6 -9.6 0 0 0 0 1 5
1573 2 2.8 -9.6 0 0 0 0 1 5
1506 2 3 -10 0 0 0 0 1 5
1540 2 3 -9.8 0 0 0 0 1 5
1574 2 3 -9.6 0 0 0 0 1 5
1507 2 3.2 -10 0 0 0 0 1 5
1541 2 3.2 -9.8 0 0 0 0 1 5
1575 2 3.2 -9.6 0 0 0 0 1 5
1508 2 3.4 -10 0 0 0 0 1 5
1542 2 3.4 -9.8 0 0 0 0 1 5
1576 2 3.4 -9.6 0 0 0 0 1 5
1509 2 3.6 -10 0 0 0 0 1 5
1543 2 3.6 -9.8 0 0 0 0 1 5
1577 2 3.6 -9.6 0 0 0 0 1 5
1510 2 3.8 -10 0 0 0 0 1 5
1544 2 3.8 -9.8 0 0 0 0 1 5
1578 2 3.8 -9.6 0 0 0 0 1 5
1511 2 4 -10 0 0 0 0 1 5
1512 2 4.2 -10 0 0 0 0 1 5
1545 2 4 -9.8 0 0 0 0 1 5
1546 2 4.2 -9.8 0 0 0 0 1 5
1579 2 4 -9.6 0 0 0 0 1 5
1580 2 4.2 -9.6 0 0 0 0 1 5
1513 2 4.4 -10 0 0 0 0 1 5
1514 2 4.6 -10 0 0 0 0 1 5
1547 2 4.4 -9.8 0 0 0 0 1 5
1548 2 4.6 -9.8 0 0 0 0 1 5
1581 2 4.4 -9.6 0 0 0 0 1 5
1582 2 4.6 -9.6 0 0 0 0 1 5
1515 2 4.8 -10 0 0 0 0 1 5
1516 2 5 -10 0 0 0 0 1 5
1549 2 4.8 -9.8 0 0 0 0 1 5
1550 2 5 -9.8 0 0 0 0 1 5
1583 2 4.8 -9.6 0 0 0 0 1 5
1584 2 5 -9.6 0 0 0 0 1 5
1517 2 5.2 -10 0 0 0 0 1 5
1518 2 5.4 -10 0 0 0 0 1 5
1551 2 5.2 -9.8 0 0 0 0 1 5
1552 2 5.4 -9.8 0 0 0 0 1 5
1585 2 5.2 -9.6 0 0 0 0 1 5
1586 2 5.4 -9.6 0 0 0 0 1 5
1519 2 5.6 -10 0 0 0 0 1 5
1553 2 5.6 -9.8 0 0 0 0 1 5
1587 2 5.6 -9.6 0 0 0 0 1 5
1520 2 5.8 -10 0 0 0 0 1 5
1554 2 5.8 -9.8 0 0 0 0 1 5
1588 2 5.8 -9.6 0 0 0 0 1 5
1521 2 6 -10 0 0 0 0 1 5
1555 2 6 -9.8 0 0 0 0 1 5
1589 2 6 -9.6 0 0 0 0 1 5
1522 2 6.2 -10 0 0 0 0 1 5
1523 2 6.4 -10 0 0 0 0 1 5
1556 2 6.2 -9.8 0 0 0 0 1 5
1557 2 6.4 -9.8 0 0 0 0 1 5
1590 2 6.2 -9.6 0 0 0 0 1 5
1591 2 6.4 -9.6 0 0 0 0 1 5
1524 2 6.6 -10 0 0 0 0 1 5
1525 2 6.8 -10 0 0 0 0 1 5
1558 2 6.6 -9.8 0 0 0 0 1 5
1559 2 6.8 -9.8 0 0 0 0 1 5
1592 2 6.6 -9.6 0 0 0 0 1 5
1593 2 6.8 -9.6 0 0 0 0 1 5
1526 2 7 -10 0 0 0 0 1 5
1527 2 7.2 -10 0 0 0 0 1 5
1560 2 7 -9.8 0 0 0 0 1 5
1561 2 7.2 -9.8 0 0 0 0 1 5
1594 2 7 -9.6 0 0 0 0 1 5
1595 2 7.2 -9.6 0 0 0 0 1 5
1603 2 2 -9.4 0 0 0 0 1 5
1637 2 2 -9.2 0 0 0 0 1 5
1604 2 2.2 -9.4 0 0 0 0 1 5
1605 2 2.4 -9.4 0 0 0 0 1 5
1638 2 2.2 -9.2 0 0 0 0 1 5
1639 2 2.4 -9.2 0 0 0 0 1 5
1606 2 2.6 -9.4 0 0 0 0 1 5
1607 2 2.8 -9.4 0 0 0 0 1 5
1640 2 2.6 -9.2 0 0 0 0 1 5
1641 2 2.8 -9.2 0 0 0 0 1 5
1608 2 3 -9.4 0 0 0 0 1 5
1642 2 3 -9.2 0 0 0 0 1 5
1609 2 3.2 -9.4 0 0 0 0 1 5
1643 2 3.2 -9.2 0 0 0 0 1 5
1610 2 3.4 -9.4 0 0 0 0 1 5
1644 2 3.4 -9.2 0 0 0 0 1 5
1611 2 3.6 -9.4 0 0 0 0 1 5
1645 2 3.6 -9.2 0 0 0 0 1 5
1612 2 3.8 -9.4 0 0 0 0 1 5
1646 2 3.8 -9.2 0 0 0 0 1 5
1613 2 4 -9.4 0 0 0 0 1 5
1614 2 4.2 -9.4 0 0 0 0 1 5
1647 2 4 -9.2 0 0 0 0 1 5
1648 2 4.2 -9.2 0 0 0 0 1 5
1615 2 4.4 -9.4 0 0 0 0 1 5
1616 2 4.6 -9.4 0 0 0 0 1 5
1649 2 4.4 -9.2 0 0 0 0 1 5
1650 2 4.6 -9.2 0 0 0 0 1 5
1617 2 4.8 -9.4 0 0 0 0 1 5
1618 2 5 -9.4 0 0 0 0 1 5
1651 2 4.8 -9.2 0 0 0 0 1 5
1652 2 5 -9.2 0 0 0 0 1 5
1619 2 5.2 -9.4 0 0 0 0 1 5
1620 2 5.4 -9.4 0 0 0 0 1 5
1653 2 5.2 -9.2 0 0 0 0 1 5
1654 2 5.4 -9.2 0 0 0 0 1 5
1621 2 5.6 -9.4 0 0 0 0 1 5
1655 2 5.6 -9.2 0 0 0 0 1 5
1622 2 5.8 -9.4 0 0 0 0 1 5
1656 2 5.8 -9.2 0 0 0 0 1 5
1623 2 6 -9.4 0 0 0 0 1 5
1657 2 6 -9.2 0 0 0 0 1 5
1624 2 6.2 -9.4 0 0 0 0 1 5
1625 2 6.4 -9.4 0 0 0 0 1 5
1658 2 6.2 -9.2 0 0 0 0 1 5
1659 2 6.4 -9.2 0 0 0 0 1 5
1626 2 6.6 -9.4 0 0 0 0 1 5
1627 2 6.8 -9.4 0 0 0 0 1 5
1660 2 6.6 -9.2 0 0 0 0 1 5
1661 2 6.8 -9.2 0 0 0 0 1 5
1628 2 7 -9.4 0 0 0 0 1 5
1629 2 7.2 -9.4 0 0 0 0 1 5
1662 2 7 -9.2 0 0 0 0 1 5
1663 2 7.2 -9.2 0 0 0 0 1 5
1671 2 2 -9 0 0 0 0 1 5
1705 2 2 -8.8 0 0 0 0 1 5
1672 2 2.2 -9 0 0 0 0 1 5
1673 2 2.4 -9 0 0 0 0 1 5
1706 2 2.2 -8.8 0 0 0 0 1 5
1707 2 2.4 -8.8 0 0 0 0 1 5
1674 2 2.6 -9 0 0 0 0 1 5
1675 2 2.8 -9 0 0 0 0 1 5
1708 2 2.6 -8.8 0 0 0 0 1 5
1709 2 2.8 -8.8 0 0 0 0 1 5
1676 2 3 -9 0 0 0 0 1 5
1710 2 3 -8.8 0 0 0 0 1 5
1677 2 3.2 -9 0 0 0 0 1 5
1711 2 3.2 -8.8 0 0 0 0 1 5
1678 2 3.4 -9 0 0 0 0 1 5
1712 2 3.4 -8.8 0 0 0 0 1 5
1679 2 3.6 -9 0 0 0 0 1 5
1713 2 3.6 -8.8 0 0 0 0 1 5
1680 2 3.8 -9 0 0 0 0 1 5
1714 2 3.8 -8.8 0 0 0 0 1 5
1681 2 4 -9 0 0 0 0 1 5
1682 2 4.2 -9 0 0 0 0 1 5
1715 2 4 -8.8 0 0 0 0 1 5
1716 2 4.2 -8.8 0 0 0 0 1 5
1683 2 4.4 -9 0 0 0 0 1 5
1684 2 4.6 -9 0 0 0 0 1 5
1717 2 4.4 -8.8 0 0 0 0 1 5
1718 2 4.6 -8.8 0 0 0 0 1 5
1685 2 4.8 -9 0 0 0 0 1 5
1686 2 5 -9 0 0 0 0 1 5
1719 2 4.8 -8.8 0 0 0 0 1 5
1720 2 5 -8.8 0 0 0 0 1 5
1687 2 5.2 -9 0 0 0 0 1 5
1688 2 5.4 -9 0 0 0 0 1 5
1721 2 5.2 -8.8 0 0 0 0 1 5
1722 2 5.4 -8.8 0 0 0 0 1 5
1689 2 5.6 -9 0 0 0 0 1 5
1723 2 5.6 -8.8 0 0 0 0 1 5
1690 2 5.8 -9 0 0 0 0 1 5
1724 2 5.8 -8.8 0 0 0 0 1 5
1691 2 6 -9 0 0 0 0 1 5
1725 2 6 -8.8 0 0 0 0 1 5
1692 2 6.2 -9 0 0 0 0 1 5
1693 2 6.4 -9 0 0 0 0 1 5
1726 2 6.2 -8.8 0 0 0 0 1 5
1727 2 6.4 -8.8 0 0 0 0 1 5
1694 2 6.6 -9 0 0 0 0 1 5
1695 2 6.8 -9 0 0 0 0 1 5
1728 2 6.6 -8.8 0 0 0 0 1 5
1729 2 6.8 -8.8 0 0 0 0 1 5
1696 2 7 -9 0 0 0 0 1 5
1697 2 7.2 -9 0 0 0 0 1 5
1730 2 7 -8.8 0 0 0 0 1 5
1731 2 7.2 -8.8 0 0 0 0 1 5
1739 2 2 -8.6 0 0 0 0 1 5
1773 2 2 -8.4 0 0 0 0 1 5
1740 2 2.2 -8.6 0 0 0 0 1 5
1741 2 2.4 -8.6 0 0 0 0 1 5
1774 2 2.2 -8.4 0 0 0 0 1 5
1775 2 2.4 -8.4 0 0 0 0 1 5
1742 2 2.6 -8.6 0 0 0 0 1 5
1743 2 2.8 -8.6 0 0 0 0 1 5
1776 2 2.6 -8.4 0 0 0 0 1 5
1777 2 2.8 -8.4 0 0 0 0 1 5
1744 2 3 -8.6 0 0 0 0 1 5
1778 2 3 -8.4 0 0 0 0 1 5
1745 2 3.2 -8.6 0 0 0 0 1 5
1779 2 3.2 -8.4 0 0 0 0 1 5
1746 2 3.4 -8.6 0 0 0 0 1 5
1780 2 3.4 -8.4 0 0 0 0 1 5
1747 2 3.6 -8.6 0 0 0 0 1 5
1781 2 3.6 -8.4 0 0 0 0 1 5
1748 2 3.8 -8.6 0 0 0 0 1 5
1782 2 3.8 -8.4 0 0 0 0 1 5
1749 2 4 -8.6 0 0 0 0 1 5
1750 2 4.2 -8.6 0 0 0 0 1 5
1783 2 4 -8.4 0 0 0 0 1 5
1784 2 4.2 -8.4 0 0 0 0 1 5
1751 2 4.4 -8.6 0 0 0 0 1 5
1752 2 4.6 -8.6 0 0 0 0 1 5
1785 2 4.4 -8.4 0 0 0 0 1 5
1786 2 4.6 -8.4 0 0 0 0 1 5
1753 2 4.8 -8.6 0 0 0 0 1 5
1754 2 5 -8.6 0 0 0 0 1 5
1787 2 4.8 -8.4 0 0 0 0 1 5
1788 2 5 -8.4 0 0 0 0 1 5
1755 2 5.2 -8.6 0 0 0 0 1 5
1756 2 5.4 -8.6 0 0 0 0 1 5
1789 2 5.2 -8.4 0 0 0 0 1 5
1790 2 5.4 -8.4 0 0 0 0 1 5
1757 2 5.6 -8.6 0 0 0 0 1 5
1791 2 5.6 -8.4 0 0 0 0 1 5
1758 2 5.8 -8.6 0 0 0 0 1 5
1792 2 5.8 -8.4 0 0 0 0 1 5
1759 2 6 -8.6 0 0 0 0 1 5
1793 2 6 -8.4 0 0 0 0 1 5
1760 2 6.2 -8.6 0 0 0 0 1 5
1761 2 6.4 -8.6 0 0 0 0 1 5
1794 2 6.2 -8.4 0 0 0 0 1 5
1795 2 6.4 -8.4 0 0 0 0 1 5
1762 2 6.6 -8.6 0 0 0 0 1 5
1763 2 6.8 -8.6 0 0 0 0 1 5
1796 2 6.6 -8.4 0 0 0 0 1 5
1797 2 6.8 -8.4 0 0 0 0 1 5
1764 2 7 -8.6 0 0 0 0 1 5
1765 2 7.2 -8.6 0 0 0 0 1 5
1798 2 7 -8.4 0 0 0 0 1 5
1799 2 7.2 -8.4 0 0 0 0 1 5
1807 2 2 -8.2 0 0 0 0 1 5
1841 2 2 -8 0 0 0 0 1 5
1808 2 2.2 -8.2 0 0 0 0 1 5
1809 2 2.4 -8.2 0 0 0 0 1 5
1842 2 2.2 -8 0 0 0 0 1 5
1843 2 2.4 -8 0 0 0 0 1 5
1810 2 2.6 -8.2 0 0 0 0 1 5
1811 2 2.8 -8.2 0 0 0 0 1 5
1844 2 2.6 -8 0 0 0 0 1 5
1845 2 2.8 -8 0 0 0 0 1 5
1812 2 3 -8.2 0 0 0 0 1 5
1846 2 3 -8 0 0 0 0 1 5
1813 2 3.2 -8.2 0 0 0 0 1 5
1847 2 3.2 -8 0 0 0 0 1 5
1814 2 3.4 -8.2 0 0 0 0 1 5
1848 2 3.4 -8 0 0 0 0 1 5
1815 2 3.6 -8.2 0 0 0 0 1 5
1849 2 3.6 -8 0 0 0 0 1 5
1816 2 3.8 -8.2 0 0 0 0 1 5
1850 2 3.8 -8 0 0 0 0 1 5
1817 2 4 -8.2 0 0 0 0 1 5
1818 2 4.2 -8.2 0 0 0 0 1 5
1851 2 4 -8 0 0 0 0 1 5
1852 2 4.2 -8 0 0 0 0 1 5
1819 2 4.4 -8.2 0 0 0 0 1 5
1820 2 4.6 -8.2 0 0 0 0 1 5
1853 2 4.4 -8 0 0 0 0 1 5
1854 2 4.6 -8 0 0 0 0 1 5
1821 2 4.8 -8.2 0 0 0 0 1 5
1822 2 5 -8.2 0 0 0 0 1 5
1855 2 4.8 -8 0 0 0 0 1 5
1856 2 5 -8 0 0 0 0 1 5
1823 2 5.2 -8.2 0 0 0 0 1 5
1824 2 5.4 -8.2 0 0 0 0 1 5
1857 2 5.2 -8 0 0 0 0 1 5
1858 2 5.4 -8 0 0 0 0 1 5
1825 2 5.6 -8.2 0 0 0 0 1 5
1859 2 5.6 -8 0 0 0 0 1 5
1826 2 5.8 -8.2 0 0 0 0 1 5
1860 2 5.8 -8 0 0 0 0 1 5
1827 2 6 -8.2 0 0 0 0 1 5
1861 2 6 -8 0 0 0 0 1 5
1828 2 6.2 -8.2 0 0 0 0 1 5
1829 2 6.4 -8.2 0 0 0 0 1 5
1862 2 6.2 -8 0 0 0 0 1 5
1863 2 6.4 -8 0 0 0 0 1 5
1830 2 6.6 -8.2 0 0 0 0 1 5
1831 2 6.8 -8.2 0 0 0 0 1 5
1864 2 6.6 -8 0 0 0 0 1 5
1865 2 6.8 -8 0 0 0 0 1 5
1832 2 7 -8.2 0 0 0 0 1 5
1833 2 7.2 -8.2 0 0 0 0 1 5
1866 2 7 -8 0 0 0 0 1 5
1867 2 7.2 -8 0 0 0 0 1 5
1875 2 2 -7.8 0 0 0 0 1 5
1909 2 2 -7.6 0 0 0 0 1 5
1943 2 2 -7.4 0 0 0 0 1.00259 5
1876 2 2.2 -7.8 0 0 0 0 1 5
1877 2 2.4 -7.8 0 0 0 0 1 5
1910 2 2.2 -7.6 0 0 0 0 1 5
1911 2 2.4 -7.6 0 0 0 0 1 5
1944 2 2.2 -7.4 0 0 0 0 0.999556 5
1945 2 2.4 -7.4 0 0 0 0 0.997142 5
1878 2 2.6 -7.8 0 0 0 0 1 5
1879 2 2.8 -7.8 0 0 0 0 1 5
1912 2 2.6 -7.6 0 0 0 0 1 5
1913 2 2.8 -7.6 0 0 0 0 1 5
1946 2 2.6 -7.4 0 0 0 0 1.00164 5
1947 2 2.8 -7.4 0 0 0 0 0.999831 5
1880 2 3 -7.8 0 0 0 0 1 5
1914 2 3 -7.6 0 0 0 0 1 5
1948 2 3 -7.4 0 0 0 0 1.00029 5
1881 2 3.2 -7.8 0 0 0 0 1 5
1915 2 3.2 -7.6 0 0 0 0 1 5
1949 2 3.2 -7.4 0 0 0 0 0.999678 5
1882 2 3.4 -7.8 0 0 0 0 1 5
1916 2 3.4 -7.6 0 0 0 0 1 5
1950 2 3.4 -7.4 0 0 0 0 1.00218 5
1883 2 3.6 -7.8 0 0 0 0 1 5
1917 2 3.6 -7.6 0 0 0 0 1 5
1951 2 3.6 -7.4 0 0 0 0 1.00043 5
1884 2 3.8 -7.8 0 0 0 0 1 5
1918 2 3.8 -7.6 0 0 0 0 1 5
1952 2 3.8 -7.4 0 0 0 0 1.02814 5
1885 2 4 -7.8 0 0 0 0 1 5
1886 2 4.2 -7.8 0 0 0 0 1 5
1919 2 4 -7.6 0 0 0 0 1 5
1920 2 4.2 -7.6 0 0 0 0 1 5
1953 2 4 -7.4 0 0 0 0 1.04196 5
1954 2 4.2 -7.4 0 0 0 0 1.05428 5
1887 2 4.4 -7.8 0 0 0 0 1 5
1888 2 4.6 -7.8 0 0 0 0 1 5
1921 2 4.4 -7.6 0 0 0 0 1 5
1922 2 4.6 -7.6 0 0 0 0 1 5
1955 2 4.4 -7.4 0 0 0 0 1.04697 5
1956 2 4.6 -7.4 0 0 0 0 1.04572 5
1889 2 4.8 -7.8 0 0 0 0 1 5
1890 2 5 -7.8 0 0 0 0 1 5
1923 2 4.8 -7.6 0 0 0 0 1 5
1924 2 5 -7.6 0 0 0 0 1 5
1957 2 4.8 -7.4 0 0 0 0 1.04486 5
1958 2 5 -7.4 0 0 0 0 1.04497 5
1891 2 5.2 -7.8 0 0 0 0 1 5
1892 2 5.4 -7.8 0 0 0 0 1 5
1925 2 5.2 -7.6 0 0 0 0 1 5
1926 2 5.4 -7.6 0 0 0 0 1 5
1959 2 5.2 -7.4 0 0 0 0 1.04507 5
1960 2 5.4 -7.4 0 0 0 0 1.04522 5
1893 2 5.6 -7.8 0 0 0 0 1 5
1927 2 5.6 -7.6 0 0 0 0 1 5
1961 2 5.6 -7.4 0 0 0 0 1.04499 5
1894 2 5.8 -7.8 0 0 0 0 1 5
1928 2 5.8 -7.6 0 0 0 0 1 5
1962 2 5.8 -7.4 0 0 0 0 1.04487 5
1895 2 6 -7.8 0 0 0 0 1 5
1929 2 6 -7.6 0 0 0 0 1 5
1963 2 6 -7.4 0 0 0 0 1.04475 5
1896 2 6.2 -7.8 0 0 0 0 1 5
1897 2 6.4 -7.8 0 0 0 0 1 5
1930 2 6.2 -7.6 0 0 0 0 1 5
1931 2 6.4 -7.6 0 0 0 0 1 5
1964 2 6.2 -7.4 0 0 0 0 1.04469 5
1965 2 6.4 -7.4 0 0 0 0 1.045 5
1898 2 6.6 -7.8 0 0 0 0 1 5
1899 2 6.8 -7.8 0 0 0 0 1 5
1932 2 6.6 -7.6 0 0 0 0 1 5
1933 2 6.8 -7.6 0 0 0 0 1 5
1966 2 6.6 -7.4 0 0 0 0 1.04518 5
1967 2 6.8 -7.4 0 0 0 0 1.04503 5
1900 2 7 -7.8 0 0 0 0 1 5
1901 2 7.2 -7.8 0 0 0 0 1 5
1934 2 7 -7.6 0 0 0 0 1 5
1935 2 7.2 -7.6 0 0 0 0 1 5
1968 2 7 -7.4 0 0 0 0 1.04499 5
1969 2 7.2 -7.4 0 0 0 0 1.04517 5
1977 2 2 -7.2 0 0 0 0 1.00242 5
2011 2 2 -7 0 0 0 0 1.00191 5
1978 2 2.2 -7.2 0 0 0 0 0.999598 5
1979 2 2.4 -7.2 0 0 0 0 0.998348 5
2012 2 2.2 -7 0 0 0 0 0.999714 5
2013 2 2.4 -7 0 0 0 0 0.999162 5
1980 2 2.6 -7.2 0 0 0 0 1.00137 5
1981 2 2.8 -7.2 0 0 0 0 1.00007 5
2014 2 2.6 -7 0 0 0 0 1.00056 5
2015 2 2.8 -7 0 0 0 0 1.00017 5
1982 2 3 -7.2 0 0 0 0 1.00012 5
2016 2 3 -7 0 0 0 0 1.0002 5
1983 2 3.2 -7.2 0 0 0 0 1.00044 5
2017 2 3.2 -7 0 0 0 0 1.00037 5
1984 2 3.4 -7.2 0 0 0 0 1.00094 5
2018 2 3.4 -7 0 0 0 0 1.00083 5
1985 2 3.6 -7.2 0 0 0 0 1.00447 5
2019 2 3.6 -7 0 0 0 0 1.00476 5
1986 2 3.8 -7.2 0 0 0 0 1.01935 5
2020 2 3.8 -7 0 0 0 0 1.0182 5
1987 2 4 -7.2 0 0 0 0 1.03422 5
1988 2 4.2 -7.2 0 0 0 0 1.04593 5
2021 2 4 -7 0 0 0 0 1.02941 5
2022 2 4.2 -7 0 0 0 0 1.04093 5
1989 2 4.4 -7.2 0 0 0 0 1.0504 5
1990 2 4.6 -7.2 0 0 0 0 1.04781 5
2023 2 4.4 -7 0 0 0 0 1.05164 5
2024 2 4.6 -7 0 0 0 0 1.0495 5
1991 2 4.8 -7.2 0 0 0 0 1.04639 5
1992 2 5 -7.2 0 0 0 0 1.04638 5
2025 2 4.8 -7 0 0 0 0 1.04745 5
2026 2 5 -7 0 0 0 0 1.04735 5
1993 2 5.2 -7.2 0 0 0 0 1.04648 5
1994 2 5.4 -7.2 0 0 0 0 1.04646 5
2027 2 5.2 -7 0 0 0 0 1.04748 5
2028 2 5.4 -7 0 0 0 0 1.04743 5
1995 2 5.6 -7.2 0 0 0 0 1.04639 5
2029 2 5.6 -7 0 0 0 0 1.04733 5
1996 2 5.8 -7.2 0 0 0 0 1.04634 5
2030 2 5.8 -7 0 0 0 0 1.04729 5
1997 2 6 -7.2 0 0 0 0 1.04627 5
2031 2 6 -7 0 0 0 0 1.04724 5
1998 2 6.2 -7.2 0 0 0 0 1.0462 5
1999 2 6.4 -7.2 0 0 0 0 1.04616 5
2032 2 6.2 -7 0 0 0 0 1.04713 5
2033 2 6.4 -7 0 0 0 0 1.047 5
2000 2 6.6 -7.2 0 0 0 0 1.04618 5
2001 2 6.8 -7.2 0 0 0 0 1.04621 5
2034 2 6.6 -7 0 0 0 0 1.04704 5
2035 2 6.8 -7 0 0 0 0 1.04714 5
2002 2 7 -7.2 0 0 0 0 1.04618 5
2003 2 7.2 -7.2 0 0 0 0 1.04619 5
2036 2 7 -7 0 0 0 0 1.0471 5
2037 2 7.2 -7 0 0 0 0 1.04707 5
16401 1 1.39102 -6.74338 0.02 0 -1.37678e-06 -1.09064e-06 1 2
16402 1 1.34849 -6.5613 0.02 0 -1.51518e-10 -3.90337e-11 1 2
16403 1 1.59236 -6.74376 0.02 0 -0.000211394 -8.62206e-05 1 2
16405 1 1.54494 -6.55905 0.02 0 -1.8396e-07 -1.10737e-08 1 2
16404 1 1.78777 -6.73868 0.02 0 -0.0018822 -0.000513543 1 2
16406 1 1.74944 -6.55789 0.02 0 -6.88644e-06 4.25864e-05 1 2
16407 1 1.98341 -6.73962 0.02 0 -0.0034164 -0.000707697 1 2
16409 1 1.95378 -6.54776 0.02 0 9.02689e-05 0.000312501 1 2
16408 1 2.19313 -6.76082 0.02 0 -0.00351758 -0.000530579 1 2
16410 1 2.14911 -6.57768 0.02 0 0.000146605 0.00054947 1 2
16411 1 2.39388 -6.73736 0.02 0 -0.00244414 -0.00050093 1 2
16413 1 2.34552 -6.55109 0.02 0 0.000254863 0.000513911 1 2
16412 1 2.59327 -6.74024 0.02 0 -0.0028336 -0.000567132 1 2
16414 1 2.54615 -6.56038 0.02 0 0.000245261 0.000539922 1 2
16415 1 2.75327 -6.57021 0.02 0 0.000206401 0.000528802 1 2
16416 1 2.79717 -6.75869 0.02 0 -0.00319594 -0.000494397 1 2
16417 1 2.99733 -6.7389 0.02 0 -0.00257008 -0.000452672 1 2
16418 1 2.96121 -6.56389 0.02 0 0.00017584 0.000474338 1 2
16419 1 3.18145 -6.57614 0.02 0 0.000154507 0.000420485 1 2
16420 1 3.19405 -6.75753 0.02 0 -0.00310749 -0.000352297 1 2
16067 1 3.38573 -6.74459 0.02 0 -0.00276549 -0.000427256 1 2
16068 1 3.58756 -6.76349 0.02 0 -0.00410913 -7.22025e-05 1 2
16069 1 3.41947 -6.57221 0.02 0 0.000104559 0.000599482 1 2
16070 1 3.62426 -6.57855 0.02 0 -0.000907333 0.000789228 1 2
16071 1 3.80071 -6.76677 0.02 0 -0.0100651 0.000345237 1 2
16072 1 3.99971 -6.75117 0.02 0 -0.00845783 0.000395492 1.00958 2
16073 1 3.82268 -6.57855 0.02 0 -0.00452463 0.000715912 1 2
16074 1 3.99934 -6.55972 0.02 0 -0.00597261 0.000375259 1.02069 2
16075 1 4.11973 -6.71411 0.0059664 0.000973645 -0.00182029 -0.00062363 1.05027 0
16077 1 3.99996 -6.58996 0.02 0 -0.00962059 0.000360651 1.0336 2
16076 1 4.22241 -6.69409 0.00470691 0.000133919 -0.000657009 -0.000193535 1.05667 0
16078 1 4.28064 -6.50142 0.00758523 0.00237581 -2.51613e-05 -8.38949e-05 1.05575 0
16079 1 4.32597 -6.65574 0.00539032 0.000530277 -0.000180738 -7.59476e-05 1.05496 0
16081 1 4.15405 -6.51978 0.00822391 0.0025262 -0.000353195 -0.000321428 1.05314 0
16080 1 4.45418 -6.59105 0.00805716 0.00130758 1.44128e-05 -9.36404e-06 1.0499 0
16083 1 4.40253 -6.77744 0.00292534 -0.00142181 -5.25789e-05 -4.73822e-06 1.05603 0
15363 1 3.99936 -6.69059 0.02 0 -0.0071891 0.000278795 1.03383 2
15362 1 4.00032 -6.85173 -0.000408613 -0.000607148 -0.000163411 -1.22077e-05 1.0464 0
16084 1 4.56806 -6.66426 0.00638283 0.000594891 2.44501e-05 1.43628e-06 1.0476 0
15599 1 4.66425 -6.55359 0.00828045 0.00139875 2.54917e-05 -2.3269e-06 1.04643 0
15602 1 4.78665 -6.60642 0.00651487 0.000946053 1.56649e-05 -2.22973e-06 1.04626 0
15754 1 4.59581 -6.80783 0.00343092 -0.000791937 1.23652e-05 -2.82302e-07 1.05062 0
15758 1 4.76672 -6.73715 0.00385942 0.000181128 1.10111e-05 -2.39759e-06 1.04728 0
15603 1 4.89196 -6.50455 0.00769961 0.00129409 1.50519e-05 -1.59853e-06 1.04665 0
15762 1 4.96958 -6.6221 0.00522097 0.000705777 1.0496e-05 -1.30947e-06 1.0465 0
15348 1 4.90779 -6.79963 0.0023292 -0.000639261 6.6657e-06 -1.58918e-06 1.0493 0
15763 1 5.17231 -6.57685 0.00527248 0.000698289 6.05642e-06 9.14122e-07 1.04646 0
14630 1 5.07034 -6.69577 0.00337919 0.00022932 6.4257e-06 -5.58722e-07 1.04695 0
15011 1 5.16922 -6.79492 0.00182235 -0.000710094 2.71836e-06 -1.52107e-07 1.04927 0
15353 1 5.29455 -6.61069 0.0043672 0.000501216 1.54131e-06 1.49653e-06 1.04634 0
15357 1 5.41936 -6.56898 0.00478426 0.000555912 -2.41652e-06 2.64672e-06 1.0462 0
15019 1 5.53297 -6.61048 0.00392249 0.000394107 -4.69245e-06 2.72557e-06 1.04619 0
14789 1 5.33936 -6.76397 0.00202149 -0.000439162 -5.05934e-07 1.02299e-06 1.04833 0
15365 1 5.67893 -6.583 0.00409373 0.000405168 -6.89641e-06 3.00845e-06 1.04607 0
14793 1 5.50065 -6.79021 0.00164219 -0.000718506 -2.69346e-06 1.5529e-06 1.04899 0
14324 1 5.66689 -6.7243 0.00217153 -0.000123907 -4.78317e-06 2.0736e-06 1.04717 0
15015 1 5.83617 -6.52547 0.00461323 0.000457459 -8.25169e-06 2.83526e-06 1.046 0
15023 1 5.88602 -6.63171 0.0031435 0.000249671 -6.21001e-06 2.06593e-06 1.04609 0
15026 1 6.02366 -6.53607 0.00421978 0.000383651 -7.02686e-06 1.66233e-06 1.04592 0
13971 1 5.78889 -6.80417 0.00133313 -0.000827503 -3.97948e-06 1.47318e-06 1.04907 0
13644 1 5.96513 -6.74175 0.0017544 -0.000284782 -4.36796e-06 1.25992e-06 1.04738 0
14317 1 6.1239 -6.61275 0.00314233 0.000250401 -4.86668e-06 9.1089e-07 1.04595 0
13274 1 6.10943 -6.80839 0.00118399 -0.000885787 -2.84937e-06 4.10268e-07 1.04899 0
13969 1 6.25496 -6.58276 0.00339101 0.000270796 -3.91039e-06 1.69502e-08 1.04587 0
14790 1 6.39961 -6.58249 0.00325435 0.000253868 -2.18129e-06 -9.68606e-07 1.04585 0
13289 1 6.27151 -6.73768 0.00164204 -0.000308806 -2.34648e-06 -1.17583e-07 1.0473 0
12949 1 6.41296 -6.77922 0.0012258 -0.000678586 -9.54945e-07 -7.45788e-07 1.04835 0
14320 1 6.53285 -6.59601 0.00299373 0.000235784 -5.638e-07 -1.92214e-06 1.04583 0
13979 1 6.6758 -6.58999 0.00296233 0.000239325 7.1094e-07 -2.95806e-06 1.04576 0
12617 1 6.57002 -6.7617 0.00128689 -0.000508306 1.85518e-07 -1.35508e-06 1.04783 0
13983 1 6.8206 -6.63714 0.00234933 0.000159574 1.74729e-06 -3.35535e-06 1.04584 0
11882 1 6.72962 -6.79026 0.00104887 -0.000701495 1.14965e-06 -1.9309e-06 1.04841 0
11552 1 6.91666 -6.80602 0.000966652 -0.00078343 1.76347e-06 -2.41387e-06 1.04859 0
13641 1 6.99854 -6.52381 0.0034436 0.000268673 1.7351e-06 -5.36194e-06 1.04565 0
13276 1 7.0003 -6.6544 0.00206689 0.000118564 2.25362e-06 -3.81665e-06 1.04588 0
12936 1 7.15456 -6.607 0.00250854 0.000201091 2.17282e-06 -4.82918e-06 1.04567 0
12953 1 7.30223 -6.62381 0.0022782 0.000167925 1.82364e-06 -4.75317e-06 1.04575 0
11164 1 7.12258 -6.78602 0.00102073 -0.000617165 2.11765e-06 -2.8537e-06 1.0481 0
11323 1 7.3094 -6.79643 0.000913371 -0.000706775 2.03642e-06 -2.7651e-06 1.04837 0
16422 1 1.20427 -6.14001 0.02 0 0 0 1 2
16421 1 1.38099 -6.37302 0.02 0 -1.14766e-12 -1.26415e-13 1 2
16423 1 1.38328 -6.17699 0.02 0 0 0 1 2
16424 1 1.58614 -6.37279 0.02 0 8.17477e-09 2.714e-08 1 2
16426 1 1.57108 -6.17854 0.02 0 3.03761e-10 2.86324e-09 1 2
16425 1 1.78711 -6.37301 0.02 0 4.76621e-06 1.24088e-05 1 2
16427 1 1.76489 -6.17868 0.02 0 3.88911e-08 4.19538e-07 1 2
16428 1 1.97955 -6.34968 0.02 0 2.57278e-05 5.91541e-05 1 2
16430 1 1.96258 -6.15582 0.02 0 4.89553e-07 1.59732e-06 1 2
16429 1 2.16643 -6.38741 0.02 0 9.26474e-05 0.000159517 1 2
16431 1 2.16296 -6.18703 0.02 0 4.47803e-06 1.01351e-05 1 2
16432 1 2.35769 -6.35636 0.02 0 8.31817e-05 0.000122235 1 2
16434 1 2.36355 -6.16656 0.02 0 4.28384e-06 9.44042e-06 1 2
16433 1 2.55422 -6.37526 0.02 0 9.55639e-05 0.000140826 1 2
16435 1 2.56527 -6.18666 0.02 0 5.71795e-06 1.22234e-05 1 2
16436 1 2.75321 -6.38288 0.02 0 0.000106976 0.000149839 1 2
16437 1 2.77457 -6.19235 0.02 0 6.21671e-06 1.33602e-05 1 2
16438 1 2.95844 -6.38424 0.02 0 0.000104553 0.000137643 1 2
16439 1 2.97778 -6.19559 0.02 0 6.53078e-06 1.3292e-05 1 2
16440 1 3.18038 -6.21836 0.02 0 1.03558e-05 1.6919e-05 1 2
16441 1 3.16999 -6.40087 0.02 0 0.000131003 0.00017325 1 2
16086 1 3.37746 -6.40575 0.02 0 0.000139579 0.000172068 1 2
16087 1 3.60148 -6.39862 0.02 0 -0.000420434 0.000179428 1 2
16088 1 3.39885 -6.22649 0.02 0 9.18947e-06 1.89575e-05 1 2
16089 1 3.61696 -6.21801 0.02 0 -0.000713526 -4.28094e-05 1 2
16090 1 3.80749 -6.38915 0.02 0 -0.00379281 0.000113642 1 2
16091 1 4.0002 -6.36752 0.0176324 0.000100379 -0.00947048 0.000401514 1.00612 0
16092 1 3.82266 -6.18855 0.02 0 -0.00414045 -0.000265346 1 2
16093 1 3.99989 -6.17964 0.02 0 -0.00845461 -0.000106102 1.02306 2
16094 1 4.12198 -6.34164 0.00888281 0.00102305 0.000381469 -0.000136298 1.05004 0
16096 1 4.15198 -6.17912 0.00931107 0.000984155 0.000446015 0.000108377 1.05236 0
16082 1 4.41005 -6.44625 0.00979166 0.00217231 6.77078e-05 -4.90215e-06 1.05124 0
16085 1 4.4212 -6.30289 0.0111703 0.00242591 8.25945e-05 3.50239e-06 1.05048 0
16095 1 4.09457 -6.41343 0.00862425 0.00106392 0.00014535 -0.000190289 1.04745 0
16097 1 4.29865 -6.16708 0.00979444 0.00202838 0.000169446 5.67493e-05 1.05406 0
16098 1 4.27082 -6.32043 0.00843413 0.00212 0.000222025 -6.57896e-06 1.05518 0
16099 1 4.52564 -6.21727 0.0122936 0.00262246 3.56226e-05 1.05819e-05 1.04774 0
16100 1 4.44359 -6.09609 0.012676 0.00272706 3.61119e-05 2.366e-05 1.049 0
16101 1 4.00001 -6.25401 0.0178482 5.29886e-05 -0.00860731 0.000211954 1.03315 0
15607 1 4.13847 -6.06401 0.00970519 0.000600345 0.000144202 0.000199667 1.05142 0
15600 1 4.55931 -6.45505 0.010202 0.00193033 3.58799e-05 -2.43624e-07 1.04741 0
16102 1 4.65446 -6.1327 0.0125221 0.00285611 2.73413e-05 8.80682e-06 1.04684 0
15606 1 4.76104 -6.24133 0.0113398 0.00242867 2.4795e-05 2.42469e-06 1.04701 0
15608 1 4.62691 -6.32532 0.0112666 0.00231676 2.9985e-05 5.40072e-07 1.04695 0
15601 1 4.88602 -6.33193 0.00985231 0.00191851 1.84254e-05 1.0414e-06 1.04714 0
15604 1 4.75589 -6.41834 0.00967136 0.0018323 2.16178e-05 -1.94344e-06 1.04668 0
15610 1 4.85891 -6.13349 0.0115852 0.00266207 2.16403e-05 7.94707e-06 1.04727 0
15755 1 5.03619 -6.4591 0.00758963 0.00124389 1.14314e-05 9.42626e-07 1.04689 0
15759 1 5.18337 -6.42979 0.00737038 0.00114211 5.91138e-06 3.0098e-06 1.04681 0
15777 1 5.00325 -6.13285 0.0109497 0.00241491 1.47102e-05 8.28606e-06 1.04744 0
15605 1 5.01367 -6.2908 0.00962014 0.00183494 1.35665e-05 4.09154e-06 1.04734 0
15770 1 5.15028 -6.11132 0.0105684 0.00222001 6.68978e-06 8.89747e-06 1.0473 0
15756 1 5.1538 -6.27193 0.00922896 0.00166127 7.02349e-06 5.56959e-06 1.04724 0
15757 1 5.29808 -6.26821 0.00877309 0.00145404 2.80776e-07 6.06435e-06 1.047 0
15766 1 5.29627 -6.07942 0.0103541 0.00206791 -1.61156e-06 8.64272e-06 1.04706 0
15760 1 5.40505 -6.16114 0.00941017 0.00162454 -5.05341e-06 7.07928e-06 1.04693 0
15761 1 5.33753 -6.41614 0.00704288 0.00100865 -4.05481e-07 4.18376e-06 1.04659 0
15347 1 5.47479 -6.38941 0.00697413 0.000935308 -5.17194e-06 4.62693e-06 1.04649 0
15764 1 5.5161 -6.22451 0.00854124 0.00128801 -7.7764e-06 5.9054e-06 1.04679 0
15765 1 5.67757 -6.1006 0.00917028 0.00141601 -1.20838e-05 5.13687e-06 1.04675 0
15349 1 5.60533 -6.43524 0.00613296 0.000733922 -7.7019e-06 4.13079e-06 1.04627 0
15350 1 5.64245 -6.2633 0.00785058 0.00104625 -9.89452e-06 4.91531e-06 1.04665 0
15351 1 5.82953 -6.08626 0.00893782 0.0012645 -1.32146e-05 3.58111e-06 1.0467 0
15354 1 5.78572 -6.25536 0.00758994 0.00092344 -1.12007e-05 3.84245e-06 1.0466 0
15361 1 5.75587 -6.41593 0.00602926 0.000659963 -9.41993e-06 3.62093e-06 1.04625 0
15355 1 5.94512 -6.19185 0.00782771 0.000909504 -1.16456e-05 2.31356e-06 1.04662 0
15356 1 6.07921 -6.13198 0.00807982 0.000911303 -1.13199e-05 7.44802e-07 1.04662 0
15358 1 5.91422 -6.34942 0.00641846 0.00066472 -1.0028e-05 2.62587e-06 1.04636 0
15366 1 6.03809 -6.3875 0.00581793 0.000552921 -8.66309e-06 1.53529e-06 1.04621 0
15367 1 6.16569 -6.23566 0.00704445 0.000672522 -9.03552e-06 -1.99855e-08 1.0465 0
15028 1 6.31459 -6.15922 0.00746229 0.000690537 -8.1157e-06 -1.86221e-06 1.04654 0
15014 1 6.17688 -6.37716 0.00570509 0.000498317 -7.20049e-06 1.86693e-07 1.04619 0
15013 1 6.38963 -6.26604 0.00643472 0.000519088 -5.73836e-06 -2.34449e-06 1.04637 0
15018 1 6.29175 -6.42576 0.00506485 0.000424697 -5.13374e-06 -7.46612e-07 1.04602 0
14631 1 6.43982 -6.41703 0.00496957 0.00038857 -3.30166e-06 -2.18932e-06 1.046 0
15022 1 6.54299 -6.26144 0.0062751 0.000459646 -3.9234e-06 -3.9196e-06 1.04634 0
15016 1 6.61831 -6.09916 0.00752514 0.000593435 -5.25048e-06 -5.06613e-06 1.04649 0
15017 1 6.77311 -6.07273 0.00754965 0.000544985 -4.22722e-06 -6.35425e-06 1.04647 0
15027 1 6.6961 -6.25275 0.00617185 0.000409652 -2.54111e-06 -5.3242e-06 1.04632 0
14635 1 6.58938 -6.43192 0.00466773 0.000352989 -1.42559e-06 -3.46406e-06 1.04592 0
15025 1 6.84958 -6.19779 0.00647028 0.000394232 -2.20079e-06 -6.61157e-06 1.04637 0
14638 1 6.73732 -6.39913 0.004833 0.000328546 -4.77688e-07 -4.89089e-06 1.04597 0
13975 1 6.84183 -6.48891 0.00390286 0.000296274 1.02068e-06 -4.91766e-06 1.04573 0
14629 1 7.02164 -6.1524 0.0066775 0.000368527 -2.22471e-06 -7.53797e-06 1.04638 0
14634 1 6.90999 -6.31921 0.00538523 0.000316763 -5.00542e-07 -6.4273e-06 1.04614 0
14641 1 7.1319 -6.23005 0.00595633 0.000294848 -1.42508e-06 -7.61229e-06 1.04627 0
14312 1 7.03169 -6.38629 0.00469668 0.000283798 4.37356e-07 -6.56089e-06 1.04595 0
14313 1 7.18325 -6.36843 0.00474545 0.000258041 -1.21985e-09 -7.03909e-06 1.04598 0
15207 1 6.54584 -0.214888 0.0128428 -0.000622831 -1.39077e-05 -1.45859e-05 1.04645 0
14639 1 7.29841 -6.21339 0.00598479 0.000259065 -2.23731e-06 -7.74527e-06 1.04626 0
15211 1 6.25241 -0.291028 0.0128156 -0.000710585 -1.21992e-05 -1.37427e-05 1.04631 0
14328 1 7.25159 -6.4746 0.00377122 0.000258199 8.60702e-07 -6.3347e-06 1.04572 0
16442 1 1.2393 -5.9255 0.02 0 0 0 1 2
16443 1 1.24518 -5.71264 0.02 0 0 0 1 2
16444 1 1.42005 -5.97061 0.02 0 0 0 1 2
16445 1 1.4297 -5.7563 0.02 0 0 0 1 2
16446 1 1.60843 -5.98028 0.02 0 5.01209e-12 4.58143e-11 1 2
16448 1 1.6212 -5.77886 0.02 0 0 0 1 2
16447 1 1.79762 -5.97288 0.02 0 4.69003e-10 5.97986e-09 1 2
16449 1 1.81915 -5.76461 0.02 0 2.53559e-14 4.60697e-13 1 2
16450 1 1.99175 -5.96398 0.02 0 1.70871e-09 2.14549e-08 1 2
16452 1 2.01955 -5.77335 0.02 0 8.07885e-13 1.04386e-11 1 2
16451 1 2.19217 -5.99492 0.02 0 2.59984e-08 1.08813e-07 1 2
16453 1 2.22181 -5.80768 0.02 0 2.82745e-11 2.11216e-10 1 2
16454 1 2.41219 -5.98893 0.02 0 2.56487e-08 1.17303e-07 1 2
16456 1 2.43608 -5.81042 0.02 0 2.59112e-11 1.0633e-10 1 2
16455 1 2.63503 -6.01275 0.02 0 6.21207e-08 2.73214e-07 1 2
16457 1 2.65222 -5.82998 0.02 0 8.41943e-11 4.06818e-10 1 2
16458 1 2.84471 -6.00474 0.02 0 4.09528e-08 1.83489e-07 1 2
16460 1 2.87115 -5.81574 0.02 0 6.79349e-11 3.08934e-10 1 2
16104 1 3.23506 -6.03328 0.02 0 1.04763e-07 4.37271e-07 1 2
16107 1 3.27429 -5.83368 0.02 0 1.81153e-10 9.12296e-10 1 2
16459 1 3.04446 -6.00243 0.02 0 3.87754e-08 1.838e-07 1 2
16461 1 3.08006 -5.80261 0.02 0 3.86837e-11 1.78207e-10 1 2
16105 1 3.42673 -6.03474 0.02 0 -1.2204e-05 -4.7082e-07 1 2
16106 1 3.61904 -6.02704 0.02 0 -0.000970445 -8.63825e-05 1 2
16108 1 3.46843 -5.82876 0.02 0 -6.46531e-05 1.41738e-06 1 2
16109 1 3.66359 -5.82346 0.02 0 -0.0017835 6.02872e-07 1 2
16110 1 3.81696 -5.99289 0.02 0 -0.00447395 -0.000398618 1 2
16111 1 4.00021 -5.99756 0.018033 5.79019e-05 -0.00786792 0.000231608 1.02686 0
16112 1 3.87007 -5.803 0.02 0 -0.00632544 7.72363e-05 1 2
16113 1 4.00006 -5.81036 0.018049 1.28468e-05 -0.00780396 5.13874e-05 1.0352 0
16114 1 3.99967 -5.98364 0.02 0 -0.00507746 -1.59957e-05 1.03338 2
16115 1 4.32193 -6.01416 0.0110627 0.00228026 3.13481e-05 6.29526e-05 1.05261 0
16116 1 4.18505 -5.79083 0.00971718 0.0018025 4.99244e-05 -7.85708e-05 1.05281 0
16118 1 4.02002 -5.68552 0.00897003 0.000387032 3.88535e-05 -6.28063e-05 1.03965 0
16117 1 4.00108 -5.87092 0.0103264 -3.52981e-05 -0.000965789 -3.62873e-05 1.03569 0
16120 1 4.24781 -5.91541 0.010288 0.00195546 -5.17575e-05 3.03711e-05 1.05377 0
16122 1 4.3717 -5.77739 0.0127112 0.00294086 2.15517e-05 2.53284e-05 1.0495 0
16124 1 4.27632 -5.67294 0.0107103 0.00247582 4.15898e-05 4.99104e-05 1.05205 0
15614 1 4.45467 -5.89968 0.013395 0.00307013 -3.90178e-06 2.89484e-05 1.04782 0
16143 1 4.47467 -5.61594 0.0136175 0.00346344 -9.28896e-06 2.28954e-05 1.04648 0
16103 1 4.56468 -6.00719 0.0132817 0.00311082 1.72629e-05 2.05149e-05 1.04681 0
15609 1 4.7546 -6.01342 0.0126691 0.00314241 2.34411e-05 1.46172e-05 1.04688 0
15611 1 4.93316 -5.98035 0.0120633 0.00305643 1.62867e-05 1.41038e-05 1.04729 0
16121 1 4.64933 -5.88466 0.0134205 0.00344837 1.51986e-05 2.35688e-05 1.04638 0
16123 1 4.54056 -5.76061 0.0137322 0.00349507 -2.95847e-06 2.69815e-05 1.04621 0
16125 1 4.71949 -5.74623 0.0134335 0.00371854 1.08742e-05 2.56672e-05 1.04633 0
16126 1 4.63068 -5.6193 0.0137011 0.00379573 1.86845e-06 2.60136e-05 1.0458 0
15612 1 4.82708 -5.87155 0.012848 0.00345932 1.69073e-05 1.99406e-05 1.04693 0
15613 1 4.87238 -5.70942 0.0130482 0.00375719 8.4546e-06 2.24576e-05 1.04685 0
15773 1 5.08118 -5.95756 0.0116786 0.00288041 8.10905e-06 1.27509e-05 1.04726 0
15775 1 4.98913 -5.81003 0.0125017 0.00343959 8.39908e-06 1.77368e-05 1.04715 0
15780 1 5.07459 -5.65751 0.0127102 0.00364305 -1.02566e-06 1.67549e-05 1.04697 0
15616 1 5.14772 -5.79724 0.0121885 0.00321291 1.01139e-07 1.40876e-05 1.04703 0
15769 1 5.2357 -5.94154 0.0113621 0.00264122 -8.60443e-07 1.08671e-05 1.04704 0
15768 1 5.31161 -5.80338 0.0118453 0.00289369 -7.30779e-06 1.08508e-05 1.04683 0
15782 1 5.25197 -5.65533 0.0124726 0.00334903 -8.74496e-06 1.22331e-05 1.04678 0
15785 1 5.3931 -5.60011 0.0124297 0.00321026 -1.44432e-05 9.18292e-06 1.04665 0
15772 1 5.52634 -6.03981 0.0100022 0.00181562 -1.01117e-05 6.86475e-06 1.04681 0
15767 1 5.40879 -5.94379 0.0109182 0.00231571 -8.18347e-06 8.64981e-06 1.04684 0
15771 1 5.44901 -5.75391 0.0117827 0.00276549 -1.27462e-05 8.6834e-06 1.04671 0
15774 1 5.55655 -5.85428 0.0110754 0.00231402 -1.34734e-05 7.06195e-06 1.0467 0
15786 1 5.56156 -5.64187 0.0120315 0.00281766 -1.70806e-05 6.7201e-06 1.04663 0
15776 1 5.67556 -5.94939 0.0102501 0.00185274 -1.39917e-05 5.45286e-06 1.04671 0
15369 1 5.78925 -5.84852 0.0106291 0.00194229 -1.62417e-05 4.17999e-06 1.04665 0
15778 1 5.68132 -5.74459 0.0113846 0.00237156 -1.69772e-05 5.41064e-06 1.04664 0
15779 1 5.84946 -5.66891 0.0114593 0.00225185 -1.86706e-05 3.23821e-06 1.04661 0
15352 1 5.89165 -5.94644 0.00981782 0.00154821 -1.49431e-05 2.89989e-06 1.04666 0
15371 1 5.94545 -5.77474 0.010765 0.00187554 -1.70599e-05 2.27604e-06 1.04662 0