ITEM: TIMESTEP
7000
ITEM: NUMBER OF ATOMS
10643
ITEM: BOX BOUNDS ff ff pp
0.0000000000000000e+00 2.2000000000000000e+01
-1.0000000000000000e+01 1.0000000000000000e+01
-2.0000000000000000e-02 2.0000000000000000e-02
ITEM: ATOMS id type x y vx vy fx fy c_den c_phase
1501 2 2 -10 0 0 0 0 1 5
1535 2 2 -9.8 0 0 0 0 1 5
1569 2 2 -9.6 0 0 0 0 1 5
1502 2 2.2 -10 0 0 0 0 1 5
1503 2 2.4 -10 0 0 0 0 1 5
1536 2 2.2 -9.8 0 0 0 0 1 5
1537 2 2.4 -9.8 0 0 0 0 1 5
1570 2 2.2 -9.6 0 0 0 0 1 5
1571 2 2.4 -9.6 0 0 0 0 1 5
1504 2 2.6 -10 0 0 0 0 1 5
1505 2 2.8 -10 0 0 0 0 1 5
1538 2 2.6 -9.8 0 0 0 0 1 5
1539 2 2.8 -9.8 0 0 0 0 1 5
1572 2 2.6 -9.6 0 0 0 0 1 5
1573 2 2.8 -9.6 0 0 0 0 1 5
1506 2 3 -10 0 0 0 0 1 5
1540 2 3 -9.8 0 0 0 0 1 5
1574 2 3 -9.6 0 0 0 0 1 5
1507 2 3.2 -10 0 0 0 0 1 5
1541 2 3.2 -9.8 0 0 0 0 1 5
1575 2 3.2 -9.6 0 0 0 0 1 5
1508 2 3.4 -10 0 0 0 0 1 5
1542 2 3.4 -9.8 0 0 0 0 1 5
1576 2 3.4 -9.6 0 0 0 0 1 5
1509 2 3.6 -10 0 0 0 0 1 5
1543 2 3.6 -9.8 0 0 0 0 1 5
1577 2 3.6 -9.6 0 0 0 0 1 5
1510 2 3.8 -10 0 0 0 0 1 5
1544 2 3.8 -9.8 0 0 0 0 1 5
1578 2 3.8 -9.6 0 0 0 0 1 5
1511 2 4 -10 0 0 0 0 1 5
1512 2 4.2 -10 0 0 0 0 1 5
1545 2 4 -9.8 0 0 0 0 1 5
1546 2 4.2 -9.8 0 0 0 0 1 5
1579 2 4 -9.6 0 0 0 0 1 5
1580 2 4.2 -9.6 0 0 0 0 1 5
1513 2 4.4 -10 0 0 0 0 1 5
1514 2 4.6 -10 0 0 0 0 1 5
1547 2 4.4 -9.8 0 0 0 0 1 5
1548 2 4.6 -9.8 0 0 0 0 1 5
1581 2 4.4 -9.6 0 0 0 0 1 5
1582 2 4.6 -9.6 0 0 0 0 1 5
1515 2 4.8 -10 0 0 0 0 1 5
1516 2 5 -10 0 0 0 0 1 5
1549 2 4.8 -9.8 0 0 0 0 1 5
1550 2 5 -9.8 0 0 0 0 1 5
1583 2 4.8 -9.6 0 0 0 0 1 5
1584 2 5 -9.6 0 0 0 0 1 5
1517 2 5.2 -10 0 0 0 0 1 5
1518 2 5.4 -10 0 0 0 0 1 5
1551 2 5.2 -9.8 0 0 0 0 1 5
1552 2 5.4 -9.8 0 0 0 0 1 5
1585 2 5.2 -9.6 0 0 0 0 1 5
1586 2 5.4 -9.6 0 0 0 0 1 5
1519 2 5.6 -10 0 0 0 0 1 5
1553 2 5.6 -9.8 0 0 0 0 1 5
1587 2 5.6 -9.6 0 0 0 0 1 5
1520 2 5.8 -10 0 0 0 0 1 5
1554 2 5.8 -9.8 0 0 0 0 1 5
1588 2 5.8 -9.6 0 0 0 0 1 5
1521 2 6 -10 0 0 0 0 1 5
1555 2 6 -9.8 0 0 0 0 1 5
1589 2 6 -9.6 0 0 0 0 1 5
1522 2 6.2 -10 0 0 0 0 1 5
1523 2 6.4 -10 0 0 0 0 1 5
1556 2 6.2 -9.8 0 0 0 0 1 5
1557 2 6.4 -9.8 0 0 0 0 1 5
1590 2 6.2 -9.6 0 0 0 0 1 5
1591 2 6.4 -9.6 0 0 0 0 1 5
1524 2 6.6 -10 0 0 0 0 1 5
1525 2 6.8 -10 0 0 0 0 1 5
1558 2 6.6 -9.8 0 0 0 0 1 5
1559 2 6.8 -9.8 0 0 0 0 1 5
1592 2 6.6 -9.6 0 0 0 0 1 5
1593 2 6.8 -9.6 0 0 0 0 1 5
1526 2 7 -10 0 0 0 0 1 5
1527 2 7.2 -10 0 0 0 0 1 5
1560 2 7 -9.8 0 0 0 0 1 5
1561 2 7.2 -9.8 0 0 0 0 1 5
1594 2 7 -9.6 0 0 0 0 1 5
1595 2 7.2 -9.6 0 0 0 0 1 5
1603 2 2 -9.4 0 0 0 0 1 5
1637 2 2 -9.2 0 0 0 0 1 5
1604 2 2.2 -9.4 0 0 0 0 1 5
1605 2 2.4 -9.4 0 0 0 0 1 5
1638 2 2.2 -9.2 0 0 0 0 1 5
1639 2 2.4 -9.2 0 0 0 0 1 5
1606 2 2.6 -9.4 0 0 0 0 1 5
1607 2 2.8 -9.4 0 0 0 0 1 5
1640 2 2.6 -9.2 0 0 0 0 1 5
1641 2 2.8 -9.2 0 0 0 0 1 5
1608 2 3 -9.4 0 0 0 0 1 5
1642 2 3 -9.2 0 0 0 0 1 5
1609 2 3.2 -9.4 0 0 0 0 1 5
1643 2 3.2 -9.2 0 0 0 0 1 5
1610 2 3.4 -9.4 0 0 0 0 1 5
1644 2 3.4 -9.2 0 0 0 0 1 5
1611 2 3.6 -9.4 0 0 0 0 1 5
1645 2 3.6 -9.2 0 0 0 0 1 5
1612 2 3.8 -9.4 0 0 0 0 1 5
1646 2 3.8 -9.2 0 0 0 0 1 5
1613 2 4 -9.4 0 0 0 0 1 5
1614 2 4.2 -9.4 0 0 0 0 1 5
1647 2 4 -9.2 0 0 0 0 1 5
1648 2 4.2 -9.2 0 0 0 0 1 5
1615 2 4.4 -9.4 0 0 0 0 1 5
1616 2 4.6 -9.4 0 0 0 0 1 5
1649 2 4.4 -9.2 0 0 0 0 1 5
1650 2 4.6 -9.2 0 0 0 0 1 5
1617 2 4.8 -9.4 0 0 0 0 1 5
1618 2 5 -9.4 0 0 0 0 1 5
1651 2 4.8 -9.2 0 0 0 0 1 5
1652 2 5 -9.2 0 0 0 0 1 5
1619 2 5.2 -9.4 0 0 0 0 1 5
1620 2 5.4 -9.4 0 0 0 0 1 5
1653 2 5.2 -9.2 0 0 0 0 1 5
1654 2 5.4 -9.2 0 0 0 0 1 5
1621 2 5.6 -9.4 0 0 0 0 1 5
1655 2 5.6 -9.2 0 0 0 0 1 5
1622 2 5.8 -9.4 0 0 0 0 1 5
1656 2 5.8 -9.2 0 0 0 0 1 5
1623 2 6 -9.4 0 0 0 0 1 5
1657 2 6 -9.2 0 0 0 0 1 5
1624 2 6.2 -9.4 0 0 0 0 1 5
1625 2 6.4 -9.4 0 0 0 0 1 5
1658 2 6.2 -9.2 0 0 0 0 1 5
1659 2 6.4 -9.2 0 0 0 0 1 5
1626 2 6.6 -9.4 0 0 0 0 1 5
1627 2 6.8 -9.4 0 0 0 0 1 5
1660 2 6.6 -9.2 0 0 0 0 1 5
1661 2 6.8 -9.2 0 0 0 0 1 5
1628 2 7 -9.4 0 0 0 0 1 5
1629 2 7.2 -9.4 0 0 0 0 1 5
1662 2 7 -9.2 0 0 0 0 1 5
1663 2 7.2 -9.2 0 0 0 0 1 5
1671 2 2 -9 0 0 0 0 1 5
1705 2 2 -8.8 0 0 0 0 1 5
1672 2 2.2 -9 0 0 0 0 1 5
1673 2 2.4 -9 0 0 0 0 1 5
1706 2 2.2 -8.8 0 0 0 0 1 5
1707 2 2.4 -8.8 0 0 0 0 1 5
1674 2 2.6 -9 0 0 0 0 1 5
1675 2 2.8 -9 0 0 0 0 1 5
1708 2 2.6 -8.8 0 0 0 0 1 5
1709 2 2.8 -8.8 0 0 0 0 1 5
1676 2 3 -9 0 0 0 0 1 5
1710 2 3 -8.8 0 0 0 0 1 5
1677 2 3.2 -9 0 0 0 0 1 5
1711 2 3.2 -8.8 0 0 0 0 1 5
1678 2 3.4 -9 0 0 0 0 1 5
1712 2 3.4 -8.8 0 0 0 0 1 5
1679 2 3.6 -9 0 0 0 0 1 5
1713 2 3.6 -8.8 0 0 0 0 1 5
1680 2 3.8 -9 0 0 0 0 1 5
1714 2 3.8 -8.8 0 0 0 0 1 5
1681 2 4 -9 0 0 0 0 1 5
1682 2 4.2 -9 0 0 0 0 1 5
1715 2 4 -8.8 0 0 0 0 1 5
1716 2 4.2 -8.8 0 0 0 0 1 5
1683 2 4.4 -9 0 0 0 0 1 5
1684 2 4.6 -9 0 0 0 0 1 5
1717 2 4.4 -8.8 0 0 0 0 1 5
1718 2 4.6 -8.8 0 0 0 0 1 5
1685 2 4.8 -9 0 0 0 0 1 5
1686 2 5 -9 0 0 0 0 1 5
1719 2 4.8 -8.8 0 0 0 0 1 5
1720 2 5 -8.8 0 0 0 0 1 5
1687 2 5.2 -9 0 0 0 0 1 5
1688 2 5.4 -9 0 0 0 0 1 5
1721 2 5.2 -8.8 0 0 0 0 1 5
1722 2 5.4 -8.8 0 0 0 0 1 5
1689 2 5.6 -9 0 0 0 0 1 5
1723 2 5.6 -8.8 0 0 0 0 1 5
1690 2 5.8 -9 0 0 0 0 1 5
1724 2 5.8 -8.8 0 0 0 0 1 5
1691 2 6 -9 0 0 0 0 1 5
1725 2 6 -8.8 0 0 0 0 1 5
1692 2 6.2 -9 0 0 0 0 1 5
1693 2 6.4 -9 0 0 0 0 1 5
1726 2 6.2 -8.8 0 0 0 0 1 5
1727 2 6.4 -8.8 0 0 0 0 1 5
1694 2 6.6 -9 0 0 0 0 1 5
1695 2 6.8 -9 0 0 0 0 1 5
1728 2 6.6 -8.8 0 0 0 0 1 5
1729 2 6.8 -8.8 0 0 0 0 1 5
1696 2 7 -9 0 0 0 0 1 5
1697 2 7.2 -9 0 0 0 0 1 5
1730 2 7 -8.8 0 0 0 0 1 5
1731 2 7.2 -8.8 0 0 0 0 1 5
1739 2 2 -8.6 0 0 0 0 1 5
1773 2 2 -8.4 0 0 0 0 1 5
1740 2 2.2 -8.6 0 0 0 0 1 5
1741 2 2.4 -8.6 0 0 0 0 1 5
1774 2 2.2 -8.4 0 0 0 0 1 5
1775 2 2.4 -8.4 0 0 0 0 1 5
1742 2 2.6 -8.6 0 0 0 0 1 5
1743 2 2.8 -8.6 0 0 0 0 1 5
1776 2 2.6 -8.4 0 0 0 0 1 5
1777 2 2.8 -8.4 0 0 0 0 1 5
1744 2 3 -8.6 0 0 0 0 1 5
1778 2 3 -8.4 0 0 0 0 1 5
1745 2 3.2 -8.6 0 0 0 0 1 5
1779 2 3.2 -8.4 0 0 0 0 1 5
1746 2 3.4 -8.6 0 0 0 0 1 5
1780 2 3.4 -8.4 0 0 0 0 1 5
1747 2 3.6 -8.6 0 0 0 0 1 5
1781 2 3.6 -8.4 0 0 0 0 1 5
1748 2 3.8 -8.6 0 0 0 0 1 5
1782 2 3.8 -8.4 0 0 0 0 1 5
1749 2 4 -8.6 0 0 0 0 1 5
1750 2 4.2 -8.6 0 0 0 0 1 5
1783 2 4 -8.4 0 0 0 0 1 5
1784 2 4.2 -8.4 0 0 0 0 1 5
1751 2 4.4 -8.6 0 0 0 0 1 5
1752 2 4.6 -8.6 0 0 0 0 1 5
1785 2 4.4 -8.4 0 0 0 0 1 5
1786 2 4.6 -8.4 0 0 0 0 1 5
1753 2 4.8 -8.6 0 0 0 0 1 5
1754 2 5 -8.6 0 0 0 0 1 5
1787 2 4.8 -8.4 0 0 0 0 1 5
1788 2 5 -8.4 0 0 0 0 1 5
1755 2 5.2 -8.6 0 0 0 0 1 5
1756 2 5.4 -8.6 0 0 0 0 1 5
1789 2 5.2 -8.4 0 0 0 0 1 5
1790 2 5.4 -8.4 0 0 0 0 1 5
1757 2 5.6 -8.6 0 0 0 0 1 5
1791 2 5.6 -8.4 0 0 0 0 1 5
1758 2 5.8 -8.6 0 0 0 0 1 5
1792 2 5.8 -8.4 0 0 0 0 1 5
1759 2 6 -8.6 0 0 0 0 1 5
1793 2 6 -8.4 0 0 0 0 1 5
1760 2 6.2 -8.6 0 0 0 0 1 5
1761 2 6.4 -8.6 0 0 0 0 1 5
1794 2 6.2 -8.4 0 0 0 0 1 5
1795 2 6.4 -8.4 0 0 0 0 1 5
1762 2 6.6 -8.6 0 0 0 0 1 5
1763 2 6.8 -8.6 0 0 0 0 1 5
1796 2 6.6 -8.4 0 0 0 0 1 5
1797 2 6.8 -8.4 0 0 0 0 1 5
1764 2 7 -8.6 0 0 0 0 1 5
1765 2 7.2 -8.6 0 0 0 0 1 5
1798 2 7 -8.4 0 0 0 0 1 5
1799 2 7.2 -8.4 0 0 0 0 1 5
1807 2 2 -8.2 0 0 0 0 1 5
1841 2 2 -8 0 0 0 0 1 5
1808 2 2.2 -8.2 0 0 0 0 1 5
1809 2 2.4 -8.2 0 0 0 0 1 5
1842 2 2.2 -8 0 0 0 0 1 5
1843 2 2.4 -8 0 0 0 0 1 5
1810 2 2.6 -8.2 0 0 0 0 1 5
1811 2 2.8 -8.2 0 0 0 0 1 5
1844 2 2.6 -8 0 0 0 0 1 5
1845 2 2.8 -8 0 0 0 0 1 5
1812 2 3 -8.2 0 0 0 0 1 5
1846 2 3 -8 0 0 0 0 1 5
1813 2 3.2 -8.2 0 0 0 0 1 5
1847 2 3.2 -8 0 0 0 0 1 5
1814 2 3.4 -8.2 0 0 0 0 1 5
1848 2 3.4 -8 0 0 0 0 1 5
1815 2 3.6 -8.2 0 0 0 0 1 5
1849 2 3.6 -8 0 0 0 0 1 5
1816 2 3.8 -8.2 0 0 0 0 1 5
1850 2 3.8 -8 0 0 0 0 1 5
1817 2 4 -8.2 0 0 0 0 1 5
1818 2 4.2 -8.2 0 0 0 0 1 5
1851 2 4 -8 0 0 0 0 1 5
1852 2 4.2 -8 0 0 0 0 1 5
1819 2 4.4 -8.2 0 0 0 0 1 5
1820 2 4.6 -8.2 0 0 0 0 1 5
1853 2 4.4 -8 0 0 0 0 1 5
1854 2 4.6 -8 0 0 0 0 1 5
1821 2 4.8 -8.2 0 0 0 0 1 5
1822 2 5 -8.2 0 0 0 0 1 5
1855 2 4.8 -8 0 0 0 0 1 5
1856 2 5 -8 0 0 0 0 1 5
1823 2 5.2 -8.2 0 0 0 0 1 5
1824 2 5.4 -8.2 0 0 0 0 1 5
1857 2 5.2 -8 0 0 0 0 1 5
1858 2 5.4 -8 0 0 0 0 1 5
1825 2 5.6 -8.2 0 0 0 0 1 5
1859 2 5.6 -8 0 0 0 0 1 5
1826 2 5.8 -8.2 0 0 0 0 1 5
1860 2 5.8 -8 0 0 0 0 1 5
1827 2 6 -8.2 0 0 0 0 1 5
1861 2 6 -8 0 0 0 0 1 5
1828 2 6.2 -8.2 0 0 0 0 1 5
1829 2 6.4 -8.2 0 0 0 0 1 5
1862 2 6.2 -8 0 0 0 0 1 5
1863 2 6.4 -8 0 0 0 0 1 5
1830 2 6.6 -8.2 0 0 0 0 1 5
1831 2 6.8 -8.2 0 0 0 0 1 5
1864 2 6.6 -8 0 0 0 0 1 5
1865 2 6.8 -8 0 0 0 0 1 5
1832 2 7 -8.2 0 0 0 0 1 5
1833 2 7.2 -8.2 0 0 0 0 1 5
1866 2 7 -8 0 0 0 0 1 5
1867 2 7.2 -8 0 0 0 0 1 5
1875 2 2 -7.8 0 0 0 0 1 5
1909 2 2 -7.6 0 0 0 0 1 5
1943 2 2 -7.4 0 0 0 0 1.00123 5
1876 2 2.2 -7.8 0 0 0 0 1 5
1877 2 2.4 -7.8 0 0 0 0 1 5
1910 2 2.2 -7.6 0 0 0 0 1 5
1911 2 2.4 -7.6 0 0 0 0 1 5
1944 2 2.2 -7.4 0 0 0 0 1.00051 5
1945 2 2.4 -7.4 0 0 0 0 0.997536 5
1878 2 2.6 -7.8 0 0 0 0 1 5
1879 2 2.8 -7.8 0 0 0 0 1 5
1912 2 2.6 -7.6 0 0 0 0 1 5
1913 2 2.8 -7.6 0 0 0 0 1 5
1946 2 2.6 -7.4 0 0 0 0 1.00078 5
1947 2 2.8 -7.4 0 0 0 0 1.00078 5
1880 2 3 -7.8 0 0 0 0 1 5
1914 2 3 -7.6 0 0 0 0 1 5
1948 2 3 -7.4 0 0 0 0 1.00115 5
1881 2 3.2 -7.8 0 0 0 0 1 5
1915 2 3.2 -7.6 0 0 0 0 1 5
1949 2 3.2 -7.4 0 0 0 0 0.996798 5
1882 2 3.4 -7.8 0 0 0 0 1 5
1916 2 3.4 -7.6 0 0 0 0 1 5
1950 2 3.4 -7.4 0 0 0 0 1.00157 5
1883 2 3.6 -7.8 0 0 0 0 1 5
1917 2 3.6 -7.6 0 0 0 0 1 5
1951 2 3.6 -7.4 0 0 0 0 1.00066 5
1884 2 3.8 -7.8 0 0 0 0 1 5
1918 2 3.8 -7.6 0 0 0 0 1 5
1952 2 3.8 -7.4 0 0 0 0 1.00126 5
1885 2 4 -7.8 0 0 0 0 1 5
1886 2 4.2 -7.8 0 0 0 0 1 5
1919 2 4 -7.6 0 0 0 0 1 5
1920 2 4.2 -7.6 0 0 0 0 1 5
1953 2 4 -7.4 0 0 0 0 1.0019 5
1954 2 4.2 -7.4 0 0 0 0 1.01897 5
1887 2 4.4 -7.8 0 0 0 0 1 5
1888 2 4.6 -7.8 0 0 0 0 1 5
1921 2 4.4 -7.6 0 0 0 0 1 5
1922 2 4.6 -7.6 0 0 0 0 1 5
1955 2 4.4 -7.4 0 0 0 0 1.0155 5
1956 2 4.6 -7.4 0 0 0 0 1.01247 5
1889 2 4.8 -7.8 0 0 0 0 1 5
1890 2 5 -7.8 0 0 0 0 1 5
1923 2 4.8 -7.6 0 0 0 0 1 5
1924 2 5 -7.6 0 0 0 0 1 5
1957 2 4.8 -7.4 0 0 0 0 1.01058 5
1958 2 5 -7.4 0 0 0 0 1.01046 5
1891 2 5.2 -7.8 0 0 0 0 1 5
1892 2 5.4 -7.8 0 0 0 0 1 5
1925 2 5.2 -7.6 0 0 0 0 1 5
1926 2 5.4 -7.6 0 0 0 0 1 5
1959 2 5.2 -7.4 0 0 0 0 1.01029 5
1960 2 5.4 -7.4 0 0 0 0 1.01041 5
1893 2 5.6 -7.8 0 0 0 0 1 5
1927 2 5.6 -7.6 0 0 0 0 1 5
1961 2 5.6 -7.4 0 0 0 0 1.01045 5
1894 2 5.8 -7.8 0 0 0 0 1 5
1928 2 5.8 -7.6 0 0 0 0 1 5
1962 2 5.8 -7.4 0 0 0 0 1.01035 5
1895 2 6 -7.8 0 0 0 0 1 5
1929 2 6 -7.6 0 0 0 0 1 5
1963 2 6 -7.4 0 0 0 0 1.01027 5
1896 2 6.2 -7.8 0 0 0 0 1 5
1897 2 6.4 -7.8 0 0 0 0 1 5
1930 2 6.2 -7.6 0 0 0 0 1 5
1931 2 6.4 -7.6 0 0 0 0 1 5
1964 2 6.2 -7.4 0 0 0 0 1.01029 5
1965 2 6.4 -7.4 0 0 0 0 1.01026 5
1898 2 6.6 -7.8 0 0 0 0 1 5
1899 2 6.8 -7.8 0 0 0 0 1 5
1932 2 6.6 -7.6 0 0 0 0 1 5
1933 2 6.8 -7.6 0 0 0 0 1 5
1966 2 6.6 -7.4 0 0 0 0 1.01025 5
1967 2 6.8 -7.4 0 0 0 0 1.01024 5
1900 2 7 -7.8 0 0 0 0 1 5
1901 2 7.2 -7.8 0 0 0 0 1 5
1934 2 7 -7.6 0 0 0 0 1 5
1935 2 7.2 -7.6 0 0 0 0 1 5
1968 2 7 -7.4 0 0 0 0 1.01024 5
1969 2 7.2 -7.4 0 0 0 0 1.01024 5
1977 2 2 -7.2 0 0 0 0 1.00209 5
2011 2 2 -7 0 0 0 0 1.00185 5
1978 2 2.2 -7.2 0 0 0 0 0.998701 5
1979 2 2.4 -7.2 0 0 0 0 0.999155 5
2012 2 2.2 -7 0 0 0 0 0.999105 5
2013 2 2.4 -7 0 0 0 0 0.999327 5
1980 2 2.6 -7.2 0 0 0 0 0.999934 5
1981 2 2.8 -7.2 0 0 0 0 1.00048 5
2014 2 2.6 -7 0 0 0 0 0.999852 5
2015 2 2.8 -7 0 0 0 0 1.00013 5
1982 2 3 -7.2 0 0 0 0 1.00045 5
2016 2 3 -7 0 0 0 0 1.00015 5
1983 2 3.2 -7.2 0 0 0 0 0.998972 5
2017 2 3.2 -7 0 0 0 0 0.999727 5
1984 2 3.4 -7.2 0 0 0 0 1.00023 5
2018 2 3.4 -7 0 0 0 0 1.00028 5
1985 2 3.6 -7.2 0 0 0 0 1.00093 5
2019 2 3.6 -7 0 0 0 0 1.00089 5
1986 2 3.8 -7.2 0 0 0 0 1.00175 5
2020 2 3.8 -7 0 0 0 0 1.00268 5
1987 2 4 -7.2 0 0 0 0 1.00638 5
1988 2 4.2 -7.2 0 0 0 0 1.01588 5
2021 2 4 -7 0 0 0 0 1.00806 5
2022 2 4.2 -7 0 0 0 0 1.01535 5
1989 2 4.4 -7.2 0 0 0 0 1.0161 5
1990 2 4.6 -7.2 0 0 0 0 1.01231 5
2023 2 4.4 -7 0 0 0 0 1.01617 5
2024 2 4.6 -7 0 0 0 0 1.01275 5
1991 2 4.8 -7.2 0 0 0 0 1.0108 5
1992 2 5 -7.2 0 0 0 0 1.01076 5
2025 2 4.8 -7 0 0 0 0 1.01115 5
2026 2 5 -7 0 0 0 0 1.01103 5
1993 2 5.2 -7.2 0 0 0 0 1.01063 5
1994 2 5.4 -7.2 0 0 0 0 1.01062 5
2027 2 5.2 -7 0 0 0 0 1.01092 5
2028 2 5.4 -7 0 0 0 0 1.01084 5
1995 2 5.6 -7.2 0 0 0 0 1.01066 5
2029 2 5.6 -7 0 0 0 0 1.01083 5
1996 2 5.8 -7.2 0 0 0 0 1.01054 5
2030 2 5.8 -7 0 0 0 0 1.0107 5
1997 2 6 -7.2 0 0 0 0 1.01043 5
2031 2 6 -7 0 0 0 0 1.01059 5
1998 2 6.2 -7.2 0 0 0 0 1.01042 5
1999 2 6.4 -7.2 0 0 0 0 1.01039 5
2032 2 6.2 -7 0 0 0 0 1.01055 5
2033 2 6.4 -7 0 0 0 0 1.01051 5
2000 2 6.6 -7.2 0 0 0 0 1.01037 5
2001 2 6.8 -7.2 0 0 0 0 1.01035 5
2034 2 6.6 -7 0 0 0 0 1.01049 5
2035 2 6.8 -7 0 0 0 0 1.01045 5
2002 2 7 -7.2 0 0 0 0 1.01033 5
2003 2 7.2 -7.2 0 0 0 0 1.0103 5
2036 2 7 -7 0 0 0 0 1.01043 5
2037 2 7.2 -7 0 0 0 0 1.01039 5
10501 1 0.845797 -6.58047 0.02 0 0 0 1 2
10502 1 0.818808 -6.75534 0.02 0 0 0 1 2
10503 1 1.02252 -6.7545 0.02 0 0 0 1 2
10504 1 1.22134 -6.73795 0.02 0 0 0 1 2
10505 1 1.06221 -6.57021 0.02 0 0 0 1 2
10506 1 1.26837 -6.55898 0.02 0 -1.06228e-12 -3.60117e-13 1 2
10507 1 1.41891 -6.75641 0.02 0 -2.09536e-06 -1.47118e-06 1 2
10508 1 1.61568 -6.75355 0.02 0 -0.00035857 -0.000177969 1 2
10509 1 1.46466 -6.56659 0.02 0 2.60517e-08 1.50144e-07 1 2
10510 1 1.66011 -6.56457 0.02 0 2.23997e-06 7.06018e-05 1 2
10511 1 1.81439 -6.74256 0.02 0 -0.00231172 -0.000747483 1 2
10512 1 2.01287 -6.75576 0.02 0 -0.00371784 -0.000775793 1 2
10513 1 1.85461 -6.56 0.02 0 -2.82914e-05 0.000339803 1 2
10514 1 2.04501 -6.56034 0.02 0 2.23855e-05 0.000470475 1 2
10515 1 2.21338 -6.76076 0.02 0 -0.00344104 -0.000575796 1 2
10516 1 2.41552 -6.74084 0.02 0 -0.00242701 -0.000533436 1 2
10517 1 2.23714 -6.57482 0.02 0 8.28986e-05 0.000521506 1 2
10518 1 2.44567 -6.55934 0.02 0 0.000167951 0.00051259 1 2
10173 1 2.81371 -6.73915 0.02 0 -0.00255149 -0.000540019 1 2
10175 1 2.84751 -6.55076 0.02 0 0.00015375 0.000490111 1 2
10519 1 2.61331 -6.75664 0.02 0 -0.00304719 -0.000559593 1 2
10520 1 2.64905 -6.56809 0.02 0 0.000107931 0.000525769 1 2
10174 1 3.01892 -6.76661 0.02 0 -0.0031422 -0.000475305 1 2
10176 1 3.03519 -6.57535 0.02 0 6.03209e-05 0.000402849 1 2
10177 1 3.23461 -6.74572 0.02 0 -0.00254626 -0.000375563 1 2
10179 1 3.22812 -6.56407 0.02 0 0.000102751 0.000291342 1 2
10178 1 3.43309 -6.75043 0.02 0 -0.00288888 -0.000367736 1 2
10180 1 3.43566 -6.56481 0.02 0 0.000137553 0.000365488 1 2
10181 1 3.62654 -6.74604 0.02 0 -0.00297371 -0.000430897 1 2
10183 1 3.64728 -6.56288 0.02 0 -0.000168072 0.000511621 1 2
10182 1 3.82585 -6.75916 0.02 0 -0.00489067 -0.000553867 1 2
10184 1 3.84774 -6.56544 0.02 0 -0.00157675 0.000531785 1 2
10185 1 4.00027 -6.74554 0.0180275 -5.48941e-05 -0.00788988 -0.000219576 1.00978 0
10187 1 3.99989 -6.55394 0.02 0 -0.00198622 0.000745436 1.01263 2
10186 1 4.11596 -6.7155 0.0120619 0.00167572 0.000489139 0.000389768 1.01944 0
10188 1 4.17124 -6.53002 0.0152684 0.00348473 -0.000110044 0.000100163 1.01928 0
10189 1 4.24515 -6.757 0.00871602 0.000366028 0.000213926 6.21051e-05 1.02179 0
10191 1 4.30847 -6.44006 0.0155253 0.00417703 -2.41404e-05 -3.63375e-06 1.01707 0
10190 1 4.36068 -6.60548 0.0129131 0.00260192 1.5779e-05 5.40161e-07 1.01679 0
10192 1 4.4785 -6.46661 0.0147496 0.00356059 2.3478e-05 -1.00395e-05 1.01425 0
3101 1 4.43217 -6.7482 0.00794183 0.000785513 4.61514e-05 4.24333e-06 1.01597 0
3102 1 4.62861 -6.55111 0.01204 0.00235458 2.11441e-05 -1.32353e-05 1.01253 0
3103 1 4.58753 -6.72187 0.00775242 0.000946083 1.59288e-05 -1.00232e-05 1.01267 0
3104 1 4.80205 -6.53927 0.0108362 0.00187356 1.40504e-05 -1.38249e-05 1.01193 0
3105 1 4.74707 -6.72926 0.0062511 0.000631786 9.77559e-06 -1.03828e-05 1.01171 0
3106 1 4.95744 -6.57786 0.00883828 0.0012046 7.07981e-06 -1.20026e-05 1.01162 0
3107 1 5.14225 -6.51124 0.00914454 0.00121624 1.17438e-06 -1.01596e-05 1.01159 0
3109 1 4.91347 -6.76758 0.00433218 0.000275684 4.88135e-06 -7.54607e-06 1.01182 0
3111 1 5.09192 -6.69396 0.00535877 0.000444288 1.53111e-06 -6.81693e-06 1.01135 0
3113 1 5.24121 -6.74422 0.00377201 0.000152901 -1.33995e-06 -3.3177e-06 1.01137 0
3108 1 5.30695 -6.51947 0.00825672 0.000931623 -3.21317e-06 -7.09829e-06 1.0113 0
3112 1 5.54635 -6.55023 0.00688014 0.000633666 -6.44355e-06 -3.08631e-06 1.01097 0
3114 1 5.40073 -6.66812 0.00495051 0.000346688 -4.45225e-06 -2.85563e-06 1.01095 0
3115 1 5.71978 -6.55185 0.00637972 0.000490628 -7.0157e-06 -1.12154e-06 1.01088 0
3116 1 5.53472 -6.77102 0.0028701 5.89421e-05 -3.93088e-06 -2.91542e-07 1.01115 0
3117 1 5.72922 -6.72098 0.00340171 0.000115955 -4.96369e-06 1.64989e-07 1.01092 0
3150 1 5.92955 -6.5533 0.00591367 0.000394161 -6.42991e-06 2.77397e-07 1.01075 0
3118 1 5.90171 -6.73233 0.00301611 4.72282e-05 -4.43224e-06 7.02024e-07 1.01087 0
3119 1 6.07624 -6.73494 0.00281465 1.94799e-05 -3.77396e-06 8.76724e-07 1.01082 0
3151 1 6.13189 -6.53808 0.00580136 0.000334997 -5.46884e-06 1.12636e-06 1.01065 0
3120 1 6.2498 -6.68374 0.00345662 6.47697e-05 -3.74215e-06 1.09511e-06 1.01066 0
3121 1 6.40224 -6.72509 0.00272008 -1.02865e-05 -2.76034e-06 1.03527e-06 1.01073 0
3154 1 6.62011 -6.52879 0.00529182 0.000206179 -3.1116e-06 1.87851e-06 1.0105 0
3122 1 6.5724 -6.71354 0.00276904 -1.1418e-05 -2.31135e-06 1.01318e-06 1.01066 0
3156 1 6.95522 -6.51902 0.00513778 0.000136843 -2.1131e-06 1.87495e-06 1.01041 0
3123 1 6.75142 -6.72527 0.0025375 -2.88751e-05 -1.77332e-06 9.62195e-07 1.01061 0
3124 1 6.93713 -6.72946 0.00241242 -4.2423e-05 -1.46905e-06 9.00064e-07 1.01058 0
3157 1 7.12411 -6.53495 0.00484195 9.4728e-05 -1.71103e-06 1.78972e-06 1.01037 0
3125 1 7.12952 -6.72997 0.00234321 -4.89321e-05 -1.19859e-06 8.7856e-07 1.01054 0
3158 1 7.30082 -6.52512 0.00487965 6.57469e-05 -1.45506e-06 1.83752e-06 1.01032 0
3126 1 7.32321 -6.71722 0.00244795 -5.60774e-05 -1.09653e-06 9.4649e-07 1.01045 0
10521 1 0.863083 -6.2288 0.02 0 0 0 1 2
10522 1 0.872572 -6.4079 0.02 0 0 0 1 2
10523 1 1.07494 -6.38721 0.02 0 0 0 1 2
10524 1 1.08498 -6.20378 0.02 0 0 0 1 2
10525 1 1.28227 -6.3754 0.02 0 0 0 1 2
10526 1 1.29538 -6.18987 0.02 0 0 0 1 2
10527 1 1.4865 -6.37705 0.02 0 4.15393e-09 2.32353e-08 1 2
10528 1 1.49877 -6.184 0.02 0 3.57491e-11 2.55211e-10 1 2
10529 1 1.68512 -6.37392 0.02 0 2.23597e-06 1.20029e-05 1 2
10530 1 1.70466 -6.18589 0.02 0 5.76016e-08 4.14374e-07 1 2
10531 1 1.88541 -6.37283 0.02 0 1.80387e-05 8.0312e-05 1 2
10532 1 2.08522 -6.36822 0.02 0 5.51053e-05 0.000139395 1 2
10533 1 1.91092 -6.18342 0.02 0 8.51888e-07 4.87906e-06 1 2
10534 1 2.11568 -6.17861 0.02 0 3.40183e-06 1.15752e-05 1 2
10535 1 2.28212 -6.39271 0.02 0 0.000112653 0.00020868 1 2
10536 1 2.47914 -6.36863 0.02 0 8.82687e-05 0.000158399 1 2
10537 1 2.3119 -6.19761 0.02 0 7.95418e-06 2.0163e-05 1 2
10538 1 2.50504 -6.16742 0.02 0 4.0882e-06 1.07862e-05 1 2
10193 1 2.8674 -6.35963 0.02 0 7.45388e-05 0.00012864 1 2
10194 1 2.8987 -6.17071 0.02 0 4.18156e-06 1.09463e-05 1 2
10539 1 2.67099 -6.37707 0.02 0 9.18083e-05 0.000153314 1 2
10540 1 2.69964 -6.1793 0.02 0 4.84326e-06 1.2284e-05 1 2
10195 1 3.06276 -6.37801 0.02 0 8.93009e-05 0.000148073 1 2
10196 1 3.09165 -6.17475 0.02 0 4.73985e-06 1.22859e-05 1 2
10197 1 3.25762 -6.37882 0.02 0 8.97235e-05 0.000140304 1 2
10199 1 3.28304 -6.18522 0.02 0 5.86189e-06 1.46199e-05 1 2
10198 1 3.45026 -6.37692 0.02 0 8.57186e-05 0.000135927 1 2
10200 1 3.47755 -6.18093 0.02 0 -5.49799e-06 1.22369e-05 1 2
10201 1 3.63793 -6.37185 0.02 0 -0.000181417 0.000122248 1 2
10203 1 3.67065 -6.16748 0.02 0 -0.000462769 1.60198e-05 1 2
10202 1 3.82567 -6.37314 0.02 0 -0.00144017 0.000139109 1 2
10204 1 3.86488 -6.181 0.02 0 -0.00239057 0.000112454 1 2
10205 1 3.99982 -6.37243 0.02 0 -0.00202164 0.000741412 1.00865 2
10207 1 4.01854 -6.17113 0.0156418 0.00151494 -1.88287e-05 3.65099e-05 1.01291 0
10206 1 4.15055 -6.31976 0.015476 0.00356265 -0.000122342 -1.6703e-05 1.01651 0
10208 1 4.18119 -6.11334 0.0152943 0.00353143 1.16426e-05 1.66014e-05 1.01506 0
10209 1 4.31289 -6.26763 0.0160369 0.00462419 5.69992e-06 -5.98829e-06 1.01534 0
10211 1 4.34991 -6.08036 0.0165331 0.00462317 2.2873e-05 8.8419e-06 1.01361 0
10210 1 4.47964 -6.2457 0.0163281 0.00458909 2.77383e-05 -6.51097e-07 1.01345 0
10212 1 4.51918 -6.04932 0.0167488 0.00478197 2.16596e-05 1.83981e-06 1.01266 0
3135 1 4.6191 -6.35937 0.015001 0.00370566 2.21822e-05 -1.0348e-05 1.01292 0
3136 1 4.78805 -6.35904 0.0138197 0.00303486 1.48197e-05 -1.3696e-05 1.01247 0
3137 1 4.93343 -6.25558 0.0140331 0.00308831 9.64678e-06 -1.33422e-05 1.01231 0
3169 1 4.65835 -6.17938 0.0159985 0.00434222 1.89583e-05 -7.83507e-06 1.01264 0
3170 1 4.8168 -6.12134 0.0156651 0.00403618 1.41009e-05 -1.04519e-05 1.01244 0
3171 1 4.99064 -6.07531 0.015268 0.00366257 9.55832e-06 -1.15302e-05 1.01221 0
3138 1 5.00974 -6.39718 0.0118167 0.00208161 6.11159e-06 -1.31638e-05 1.01204 0
3172 1 5.14633 -6.1139 0.0143384 0.00306216 4.61911e-06 -1.17013e-05 1.01193 0
3139 1 5.16077 -6.29651 0.0123582 0.00220489 2.05243e-06 -1.15886e-05 1.01185 0
3173 1 5.30603 -6.07645 0.0140396 0.00279031 1.20588e-06 -1.02703e-05 1.01165 0
3140 1 5.32263 -6.30231 0.011537 0.00180937 -2.3047e-06 -9.04096e-06 1.01158 0
3141 1 5.46272 -6.18747 0.0123283 0.00201482 -3.25842e-06 -7.7821e-06 1.01143 0
3110 1 5.46806 -6.39766 0.0096103 0.00119288 -5.56716e-06 -5.81932e-06 1.01128 0
3142 1 5.6301 -6.18054 0.0117992 0.00173715 -4.7401e-06 -5.25305e-06 1.01126 0
3143 1 5.8003 -6.1561 0.0115179 0.00155063 -4.98277e-06 -3.00844e-06 1.01112 0
3145 1 5.66133 -6.3587 0.0094892 0.00110191 -6.715e-06 -3.56142e-06 1.01113 0
3146 1 5.99631 -6.20075 0.0104667 0.00115934 -5.29571e-06 -5.25315e-07 1.01096 0
3147 1 5.83469 -6.37223 0.00878661 0.000872973 -6.86634e-06 -1.31571e-06 1.01098 0
3148 1 6.01309 -6.37867 0.0082523 0.000710497 -6.26494e-06 2.53208e-07 1.01086 0
3181 1 6.19658 -6.14707 0.0105697 0.00106857 -4.36056e-06 1.03212e-06 1.01085 0
3149 1 6.19016 -6.33724 0.00839623 0.000669683 -5.31505e-06 1.25032e-06 1.01078 0
3182 1 6.39682 -6.09465 0.0107021 0.000970272 -3.58586e-06 2.17992e-06 1.01076 0
3184 1 6.36836 -6.28374 0.00870006 0.000650581 -4.37241e-06 2.01505e-06 1.01073 0
3152 1 6.32339 -6.49673 0.00610127 0.000345614 -4.58808e-06 1.67912e-06 1.01062 0
3185 1 6.55293 -6.25151 0.00876485 0.000574656 -3.59524e-06 2.54964e-06 1.01068 0
3153 1 6.48901 -6.4465 0.00653603 0.00034349 -3.90157e-06 2.01697e-06 1.0106 0
3186 1 6.71532 -6.16886 0.00942535 0.000580478 -2.96011e-06 2.97276e-06 1.01063 0
3187 1 6.76937 -6.34179 0.00744401 0.000343317 -2.89003e-06 2.58087e-06 1.01056 0
3155 1 6.78946 -6.52512 0.00518652 0.000169387 -2.55226e-06 1.87438e-06 1.01046 0
3220 1 6.90068 -6.10479 0.00984487 0.000528248 -2.39446e-06 3.28213e-06 1.01057 0
3188 1 6.9559 -6.27457 0.00800156 0.000321834 -2.33412e-06 2.83157e-06 1.01052 0
3222 1 7.24301 -6.11634 0.00939782 0.000289152 -1.55732e-06 3.3279e-06 1.01044 0
3189 1 7.11019 -6.33216 0.00722299 0.000209277 -1.92858e-06 2.65068e-06 1.01044 0
3190 1 7.27884 -6.29962 0.0074639 0.000164608 -1.54556e-06 2.77037e-06 1.01039 0
4236 1 6.86259 -0.263015 0.0170358 -0.000212762 -5.56758e-06 -1.71652e-07 1.01041 0
10541 1 0.838645 -5.85696 0.02 0 0 0 1 2
10542 1 0.858586 -6.0486 0.02 0 0 0 1 2
10543 1 1.06415 -6.01867 0.02 0 0 0 1 2
10544 1 1.02834 -5.82533 0.02 0 0 0 1 2
10545 1 1.22406 -5.81429 0.02 0 0 0 1 2
10546 1 1.27217 -6.00318 0.02 0 0 0 1 2
10547 1 1.47975 -5.99131 0.02 0 6.79061e-17 2.28984e-15 1 2
10548 1 1.42801 -5.80594 0.02 0 0 0 1 2
10549 1 1.64787 -5.81645 0.02 0 0 0 1 2
10550 1 1.6866 -5.99936 0.02 0 1.20193e-10 2.30203e-09 1 2
10551 1 1.89084 -5.99235 0.02 0 2.3974e-09 3.20032e-08 1 2
10553 1 1.86418 -5.80089 0.02 0 0 0 1 2
10554 1 2.07718 -5.80157 0.02 0 1.54928e-11 4.49829e-11 1 2
10552 1 2.09577 -5.99012 0.02 0 1.60202e-08 9.55529e-08 1 2
10555 1 2.2983 -5.99593 0.02 0 2.90346e-08 1.26723e-07 1 2
10556 1 2.49456 -5.9702 0.02 0 1.37439e-08 5.18409e-08 1 2
10557 1 2.2823 -5.79422 0.02 0 2.04748e-11 6.01915e-11 1 2
10558 1 2.48701 -5.77703 0.02 0 4.47093e-12 1.74297e-11 1 2
10213 1 2.8898 -5.9796 0.02 0 1.39844e-08 6.72794e-08 1 2
10214 1 2.87906 -5.78431 0.02 0 9.1813e-12 3.17434e-11 1 2
10559 1 2.69167 -5.97734 0.02 0 1.17912e-08 5.01333e-08 1 2
10560 1 2.68326 -5.77065 0.02 0 3.66427e-12 1.68334e-11 1 2
10215 1 3.08972 -5.97299 0.02 0 1.0374e-08 4.35542e-08 1 2
10216 1 3.07604 -5.77559 0.02 0 4.02967e-12 1.97317e-11 1 2
10217 1 3.28614 -5.98699 0.02 0 1.78881e-08 8.60264e-08 1 2
10218 1 3.27113 -5.78504 0.02 0 5.31028e-12 3.03137e-11 1 2
10219 1 3.4659 -5.78886 0.02 0 -5.96508e-06 1.60929e-07 1 2
10220 1 3.48244 -5.9853 0.02 0 -1.11679e-05 5.86241e-07 1 2
10221 1 3.67354 -5.96034 0.02 0 -0.000510072 2.48028e-05 1 2
10223 1 3.66109 -5.75899 0.02 0 -0.000436374 1.89634e-05 1 2
10222 1 3.86435 -5.98631 0.02 0 -0.00252476 0.000248537 1 2
10224 1 3.85968 -5.78722 0.02 0 -0.00243237 0.000237244 1 2
10225 1 4.02384 -5.97033 0.0156346 0.00162153 2.80439e-06 1.69874e-05 1.01332 0
10227 1 4.02642 -5.77217 0.0157374 0.00162277 2.14188e-06 8.53966e-06 1.01326 0
10226 1 4.18747 -5.91858 0.0156458 0.00328959 1.13135e-05 1.49333e-05 1.01426 0
10228 1 4.19612 -5.72691 0.0159735 0.00307115 5.36949e-06 1.2509e-05 1.01378 0
10229 1 4.35833 -5.89359 0.016793 0.00433252 1.51319e-05 9.26718e-06 1.01285 0
10231 1 4.37127 -5.70583 0.0170281 0.00404394 1.01449e-05 1.0094e-05 1.01242 0
10230 1 4.53065 -5.85617 0.0170856 0.00469524 1.48753e-05 4.33874e-06 1.01231 0
10232 1 4.54779 -5.66606 0.0173358 0.00452375 1.13034e-05 6.50791e-06 1.01206 0
3203 1 4.68628 -5.9763 0.016672 0.00467298 1.59981e-05 -3.46117e-06 1.01243 0
3204 1 4.86105 -5.9243 0.0164637 0.00441507 1.29747e-05 -7.12178e-06 1.0123 0
3205 1 5.03917 -5.88954 0.0161858 0.00407287 9.4752e-06 -9.30613e-06 1.01205 0
3271 1 4.73118 -5.60118 0.0174287 0.00469227 1.09703e-05 2.65284e-06 1.01209 0
3237 1 4.70693 -5.78663 0.0171121 0.00473549 1.33235e-05 2.90683e-07 1.01226 0
3238 1 4.88848 -5.73699 0.0170313 0.00460365 1.1705e-05 -3.86201e-06 1.01215 0
3272 1 4.91927 -5.55309 0.0174356 0.00466248 1.01615e-05 -1.4399e-06 1.01199 0
3239 1 5.07053 -5.70445 0.0168874 0.00434225 9.22697e-06 -6.82386e-06 1.0119 0
3174 1 5.4565 -5.9845 0.0142764 0.00276763 1.42301e-07 -8.58201e-06 1.01144 0
3206 1 5.2077 -5.90039 0.0156653 0.00362241 5.53784e-06 -1.00982e-05 1.01178 0
3207 1 5.3618 -5.8207 0.0157056 0.00346478 3.88353e-06 -8.93057e-06 1.01153 0
3240 1 5.24234 -5.67275 0.0167113 0.00404456 7.05871e-06 -7.71862e-06 1.01165 0
3241 1 5.42132 -5.62283 0.0165721 0.00375535 5.60711e-06 -7.0924e-06 1.01143 0
3175 1 5.63057 -5.98741 0.0136865 0.00238581 -1.66287e-06 -6.15648e-06 1.01126 0
3176 1 5.78814 -5.92138 0.0137726 0.00227065 -1.46802e-06 -4.09851e-06 1.01113 0
3208 1 5.54032 -5.79306 0.0153902 0.00313054 2.27324e-06 -7.28449e-06 1.01134 0
3209 1 5.70661 -5.74722 0.015251 0.00288009 1.69161e-06 -5.23079e-06 1.01119 0
3210 1 5.86738 -5.67532 0.0153238 0.00270605 1.72845e-06 -3.24439e-06 1.01106 0
3144 1 5.94046 -6.02973 0.0123942 0.00170692 -3.45545e-06 -1.76871e-06 1.01102 0
3177 1 5.96135 -5.83534 0.0140004 0.00216874 -9.17169e-07 -1.97237e-06 1.011 0
3211 1 6.03969 -5.61819 0.0153162 0.00247716 1.40219e-06 -1.35721e-06 1.01093 0
3179 1 6.11776 -5.97986 0.0124116 0.00156581 -2.99505e-06 6.88991e-08 1.01091 0
3178 1 6.14551 -5.78396 0.0139729 0.00196042 -9.78965e-07 -6.68785e-08 1.01088 0
3180 1 6.29985 -5.93835 0.012384 0.00140192 -2.70045e-06 1.51007e-06 1.01081 0
3214 1 6.33318 -5.73653 0.0139571 0.00174207 -1.19438e-06 1.44656e-06 1.01077 0
3215 1 6.47784 -5.8547 0.0127672 0.00132293 -2.26054e-06 2.46633e-06 1.01071 0
3248 1 6.53363 -5.64705 0.0142678 0.0015708 -1.23705e-06 2.50622e-06 1.01067 0
3183 1 6.57084 -6.02413 0.0110894 0.000922731 -2.97137e-06 2.85344e-06 1.01068 0
3216 1 6.65872 -5.80379 0.0128979 0.00116809 -2.13103e-06 3.15688e-06 1.01064 0
3218 1 6.75858 -5.96603 0.0113482 0.000824338 -2.52174e-06 3.35527e-06 1.01061 0
3217 1 6.83626 -5.73579 0.013207 0.00103226 -1.92672e-06 3.57146e-06 1.01056 0
3219 1 6.95249 -5.90516 0.0116572 0.0007125 -2.09449e-06 3.66662e-06 1.01052 0
3252 1 7.02593 -5.72793 0.0130693 0.000810824 -1.74614e-06 3.80765e-06 1.01048 0
3221 1 7.08268 -6.04971 0.0101924 0.000453499 -1.89935e-06 3.47452e-06 1.0105 0
4191 1 4.83874 -0.368324 0.0173361 4.54687e-05 -2.84486e-07 -3.72782e-06 1.0102 0
3253 1 7.21633 -5.70238 0.0131156 0.000616178 -1.41932e-06 3.92143e-06 1.01041 0
3254 1 7.196 -5.89085 0.0115568 0.000500763 -1.53856e-06 3.78267e-06 1.01044 0
10009 1 4.28377 -0.114853 0.0167158 -4.40275e-05 -2.77832e-07 -2.17132e-06 1.01113 0
10003 1 4.28942 -0.307342 0.0166904 -7.56865e-05 3.51659e-08 -1.71515e-06 1.0112 0
10561 1 0.850061 -5.64953 0.02 0 0 0 1 2
10562 1 1.04448 -5.62334 0.02 0 0 0 1 2
10563 1 0.85136 -5.44144 0.02 0 0 0 1 2
10564 1 1.04464 -5.41999 0.02 0 0 0 1 2
10565 1 0.841907 -5.23262 0.02 0 0 0 1 2
10568 1 1.22118 -5.21795 0.02 0 0 0 1 2
10567 1 1.23984 -5.41725 0.02 0 0 0 1 2
10566 1 1.24364 -5.61653 0.02 0 0 0 1 2
10569 1 1.44476 -5.61413 0.02 0 0 0 1 2
10570 1 1.64388 -5.63003 0.02 0 0 0 1 2
10571 1 1.43505 -5.41546 0.02 0 0 0 1 2
10572 1 1.63268 -5.43551 0.02 0 0 0 1 2
10573 1 1.61468 -5.2373 0.02 0 0 0 1 2
10574 1 1.83655 -5.60063 0.02 0 0 0 1 2
10575 1 2.02883 -5.61078 0.02 0 0 0 1 2
10576 1 1.82225 -5.38976 0.02 0 0 0 1 2
10577 1 2.01368 -5.40561 0.02 0 0 0 1 2
10578 1 2.22206 -5.59358 0.02 0 0 0 1 2
10579 1 2.4193 -5.594 0.02 0 0 0 1 2
10580 1 2.2068 -5.38987 0.02 0 0 0 1 2
10581 1 2.40369 -5.397 0.02 0 0 0 1 2
10234 1 2.80237 -5.39266 0.02 0 0 0 1 2
10233 1 2.82573 -5.58762 0.02 0 0 0 1 2
10582 1 2.62135 -5.56917 0.02 0 0 0 1 2
10583 1 2.59988 -5.36945 0.02 0 0 0 1 2
10235 1 3.00929 -5.39695 0.02 0 0 0 1 2
10236 1 3.03142 -5.58573 0.02 0 0 0 1 2
10237 1 3.23975 -5.58705 0.02 0 0 0 1 2
10239 1 3.21951 -5.39695 0.02 0 0 0 1 2
10238 1 3.44336 -5.59168 0.02 0 -2.17778e-06 1.41753e-07 1 2
10240 1 3.43012 -5.39862 0.02 0 -3.90138e-07 6.62981e-08 1 2
10241 1 3.64445 -5.5651 0.02 0 -0.000318638 3.07752e-05 1 2
10243 1 3.64613 -5.38031 0.02 0 -0.000235326 4.06231e-05 1 2
10242 1 3.84579 -5.58955 0.02 0 -0.00217312 0.000303907 1 2
10244 1 3.87537 -5.40096 0.02 0 -0.00218335 0.000503933 1 2
10245 1 4.02456 -5.58313 0.0158567 0.00157749 1.0091e-06 5.94203e-06 1.01292 0
10247 1 4.0544 -5.39776 0.0160716 0.00169452 1.16563e-06 4.84611e-06 1.0128 0
10249 1 3.92335 -5.2199 0.02 0 -0.00237957 0.000511776 1 2
10250 1 4.08913 -5.21257 0.0162307 0.00174572 1.04067e-06 3.88505e-06 1.0127 0