ITEM: TIMESTEP
65000
ITEM: NUMBER OF ATOMS
10330
ITEM: BOX BOUNDS ff ff pp
0.0000000000000000e+00 2.2000000000000000e+01
-1.0000000000000000e+01 1.0000000000000000e+01
-2.0000000000000000e-02 2.0000000000000000e-02
ITEM: ATOMS id type x y vx vy fx fy c_den c_phase
1501 2 2 -10 0 0 0 0 1 4
1551 2 2 -9.8 0 0 0 0 1 4
1601 2 2 -9.6 0 0 0 0 1 4
1502 2 2.2 -10 0 0 0 0 1 4
1503 2 2.4 -10 0 0 0 0 1 4
1552 2 2.2 -9.8 0 0 0 0 1 4
1553 2 2.4 -9.8 0 0 0 0 1 4
1602 2 2.2 -9.6 0 0 0 0 1 4
1603 2 2.4 -9.6 0 0 0 0 1 4
1504 2 2.6 -10 0 0 0 0 1 4
1505 2 2.8 -10 0 0 0 0 1 4
1554 2 2.6 -9.8 0 0 0 0 1 4
1555 2 2.8 -9.8 0 0 0 0 1 4
1604 2 2.6 -9.6 0 0 0 0 1 4
1605 2 2.8 -9.6 0 0 0 0 1 4
1506 2 3 -10 0 0 0 0 1 4
1507 2 3.2 -10 0 0 0 0 1 4
1556 2 3 -9.8 0 0 0 0 1 4
1557 2 3.2 -9.8 0 0 0 0 1 4
1606 2 3 -9.6 0 0 0 0 1 4
1607 2 3.2 -9.6 0 0 0 0 1 4
1508 2 3.4 -10 0 0 0 0 1 4
1509 2 3.6 -10 0 0 0 0 1 4
1558 2 3.4 -9.8 0 0 0 0 1 4
1559 2 3.6 -9.8 0 0 0 0 1 4
1608 2 3.4 -9.6 0 0 0 0 1 4
1609 2 3.6 -9.6 0 0 0 0 1 4
1510 2 3.8 -10 0 0 0 0 1 4
1560 2 3.8 -9.8 0 0 0 0 1 4
1610 2 3.8 -9.6 0 0 0 0 1 4
1511 2 4 -10 0 0 0 0 1 4
1561 2 4 -9.8 0 0 0 0 1 4
1611 2 4 -9.6 0 0 0 0 1 4
1512 2 4.2 -10 0 0 0 0 1 4
1562 2 4.2 -9.8 0 0 0 0 1 4
1612 2 4.2 -9.6 0 0 0 0 1 4
1513 2 4.4 -10 0 0 0 0 1 4
1514 2 4.6 -10 0 0 0 0 1 4
1563 2 4.4 -9.8 0 0 0 0 1 4
1564 2 4.6 -9.8 0 0 0 0 1 4
1613 2 4.4 -9.6 0 0 0 0 1 4
1614 2 4.6 -9.6 0 0 0 0 1 4
1515 2 4.8 -10 0 0 0 0 1 4
1516 2 5 -10 0 0 0 0 1 4
1565 2 4.8 -9.8 0 0 0 0 1 4
1566 2 5 -9.8 0 0 0 0 1 4
1615 2 4.8 -9.6 0 0 0 0 1 4
1616 2 5 -9.6 0 0 0 0 1 4
1517 2 5.2 -10 0 0 0 0 1 4
1518 2 5.4 -10 0 0 0 0 1 4
1567 2 5.2 -9.8 0 0 0 0 1 4
1568 2 5.4 -9.8 0 0 0 0 1 4
1617 2 5.2 -9.6 0 0 0 0 1 4
1618 2 5.4 -9.6 0 0 0 0 1 4
1519 2 5.6 -10 0 0 0 0 1 4
1520 2 5.8 -10 0 0 0 0 1 4
1569 2 5.6 -9.8 0 0 0 0 1 4
1570 2 5.8 -9.8 0 0 0 0 1 4
1619 2 5.6 -9.6 0 0 0 0 1 4
1620 2 5.8 -9.6 0 0 0 0 1 4
1521 2 6 -10 0 0 0 0 1 4
1522 2 6.2 -10 0 0 0 0 1 4
1571 2 6 -9.8 0 0 0 0 1 4
1572 2 6.2 -9.8 0 0 0 0 1 4
1621 2 6 -9.6 0 0 0 0 1 4
1622 2 6.2 -9.6 0 0 0 0 1 4
1523 2 6.4 -10 0 0 0 0 1 4
1524 2 6.6 -10 0 0 0 0 1 4
1573 2 6.4 -9.8 0 0 0 0 1 4
1574 2 6.6 -9.8 0 0 0 0 1 4
1623 2 6.4 -9.6 0 0 0 0 1 4
1624 2 6.6 -9.6 0 0 0 0 1 4
1525 2 6.8 -10 0 0 0 0 1 4
1526 2 7 -10 0 0 0 0 1 4
1575 2 6.8 -9.8 0 0 0 0 1 4
1576 2 7 -9.8 0 0 0 0 1 4
1625 2 6.8 -9.6 0 0 0 0 1 4
1626 2 7 -9.6 0 0 0 0 1 4
1527 2 7.2 -10 0 0 0 0 1 4
1577 2 7.2 -9.8 0 0 0 0 1 4
1627 2 7.2 -9.6 0 0 0 0 1 4
1528 2 7.4 -10 0 0 0 0 1 4
1529 2 7.6 -10 0 0 0 0 1 4
1578 2 7.4 -9.8 0 0 0 0 1 4
1579 2 7.6 -9.8 0 0 0 0 1 4
1628 2 7.4 -9.6 0 0 0 0 1 4
1629 2 7.6 -9.6 0 0 0 0 1 4
1530 2 7.8 -10 0 0 0 0 1 4
1531 2 8 -10 0 0 0 0 1 4
1580 2 7.8 -9.8 0 0 0 0 1 4
1581 2 8 -9.8 0 0 0 0 1 4
1630 2 7.8 -9.6 0 0 0 0 1 4
1631 2 8 -9.6 0 0 0 0 1 4
1532 2 8.2 -10 0 0 0 0 1 4
1533 2 8.4 -10 0 0 0 0 1 4
1582 2 8.2 -9.8 0 0 0 0 1 4
1583 2 8.4 -9.8 0 0 0 0 1 4
1632 2 8.2 -9.6 0 0 0 0 1 4
1633 2 8.4 -9.6 0 0 0 0 1 4
1534 2 8.6 -10 0 0 0 0 1 4
1535 2 8.8 -10 0 0 0 0 1 4
1584 2 8.6 -9.8 0 0 0 0 1 4
1585 2 8.8 -9.8 0 0 0 0 1 4
1634 2 8.6 -9.6 0 0 0 0 1 4
1635 2 8.8 -9.6 0 0 0 0 1 4
1536 2 9 -10 0 0 0 0 1 4
1537 2 9.2 -10 0 0 0 0 1 4
1586 2 9 -9.8 0 0 0 0 1 4
1587 2 9.2 -9.8 0 0 0 0 1 4
1636 2 9 -9.6 0 0 0 0 1 4
1637 2 9.2 -9.6 0 0 0 0 1 4
1538 2 9.4 -10 0 0 0 0 1 4
1539 2 9.6 -10 0 0 0 0 1 4
1588 2 9.4 -9.8 0 0 0 0 1 4
1589 2 9.6 -9.8 0 0 0 0 1 4
1638 2 9.4 -9.6 0 0 0 0 1 4
1639 2 9.6 -9.6 0 0 0 0 1 4
1540 2 9.8 -10 0 0 0 0 1 4
1590 2 9.8 -9.8 0 0 0 0 1 4
1640 2 9.8 -9.6 0 0 0 0 1 4
1541 2 10 -10 0 0 0 0 1 4
1591 2 10 -9.8 0 0 0 0 1 4
1641 2 10 -9.6 0 0 0 0 1 4
1542 2 10.2 -10 0 0 0 0 1 4
1592 2 10.2 -9.8 0 0 0 0 1 4
1642 2 10.2 -9.6 0 0 0 0 1 4
1543 2 10.4 -10 0 0 0 0 1 4
1593 2 10.4 -9.8 0 0 0 0 1 4
1643 2 10.4 -9.6 0 0 0 0 1 4
1544 2 10.6 -10 0 0 0 0 1 4
1594 2 10.6 -9.8 0 0 0 0 1 4
1644 2 10.6 -9.6 0 0 0 0 1 4
1545 2 10.8 -10 0 0 0 0 1 4
1595 2 10.8 -9.8 0 0 0 0 1 4
1645 2 10.8 -9.6 0 0 0 0 1 4
1651 2 2 -9.4 0 0 0 0 1 4
1701 2 2 -9.2 0 0 0 0 1 4
1652 2 2.2 -9.4 0 0 0 0 1 4
1653 2 2.4 -9.4 0 0 0 0 1 4
1702 2 2.2 -9.2 0 0 0 0 1 4
1703 2 2.4 -9.2 0 0 0 0 1 4
1654 2 2.6 -9.4 0 0 0 0 1 4
1655 2 2.8 -9.4 0 0 0 0 1 4
1704 2 2.6 -9.2 0 0 0 0 1 4
1705 2 2.8 -9.2 0 0 0 0 1 4
1656 2 3 -9.4 0 0 0 0 1 4
1657 2 3.2 -9.4 0 0 0 0 1 4
1706 2 3 -9.2 0 0 0 0 1 4
1707 2 3.2 -9.2 0 0 0 0 1 4
1658 2 3.4 -9.4 0 0 0 0 1 4
1659 2 3.6 -9.4 0 0 0 0 1 4
1708 2 3.4 -9.2 0 0 0 0 1 4
1709 2 3.6 -9.2 0 0 0 0 1 4
1660 2 3.8 -9.4 0 0 0 0 1 4
1710 2 3.8 -9.2 0 0 0 0 1 4
1661 2 4 -9.4 0 0 0 0 1 4
1711 2 4 -9.2 0 0 0 0 1 4
1662 2 4.2 -9.4 0 0 0 0 1 4
1712 2 4.2 -9.2 0 0 0 0 1 4
1663 2 4.4 -9.4 0 0 0 0 1 4
1664 2 4.6 -9.4 0 0 0 0 1 4
1713 2 4.4 -9.2 0 0 0 0 1 4
1714 2 4.6 -9.2 0 0 0 0 1 4
1665 2 4.8 -9.4 0 0 0 0 1 4
1666 2 5 -9.4 0 0 0 0 1 4
1715 2 4.8 -9.2 0 0 0 0 1 4
1716 2 5 -9.2 0 0 0 0 1 4
1667 2 5.2 -9.4 0 0 0 0 1 4
1668 2 5.4 -9.4 0 0 0 0 1 4
1717 2 5.2 -9.2 0 0 0 0 1 4
1718 2 5.4 -9.2 0 0 0 0 1 4
1669 2 5.6 -9.4 0 0 0 0 1 4
1670 2 5.8 -9.4 0 0 0 0 1 4
1719 2 5.6 -9.2 0 0 0 0 1 4
1720 2 5.8 -9.2 0 0 0 0 1 4
1671 2 6 -9.4 0 0 0 0 1 4
1672 2 6.2 -9.4 0 0 0 0 1 4
1721 2 6 -9.2 0 0 0 0 1 4
1722 2 6.2 -9.2 0 0 0 0 1 4
1673 2 6.4 -9.4 0 0 0 0 1 4
1674 2 6.6 -9.4 0 0 0 0 1 4
1723 2 6.4 -9.2 0 0 0 0 1 4
1724 2 6.6 -9.2 0 0 0 0 1 4
1675 2 6.8 -9.4 0 0 0 0 1 4
1676 2 7 -9.4 0 0 0 0 1 4
1725 2 6.8 -9.2 0 0 0 0 1 4
1726 2 7 -9.2 0 0 0 0 1 4
1677 2 7.2 -9.4 0 0 0 0 1 4
1727 2 7.2 -9.2 0 0 0 0 1 4
1678 2 7.4 -9.4 0 0 0 0 1 4
1679 2 7.6 -9.4 0 0 0 0 1 4
1728 2 7.4 -9.2 0 0 0 0 1 4
1729 2 7.6 -9.2 0 0 0 0 1 4
1680 2 7.8 -9.4 0 0 0 0 1 4
1681 2 8 -9.4 0 0 0 0 1 4
1730 2 7.8 -9.2 0 0 0 0 1 4
1731 2 8 -9.2 0 0 0 0 1 4
1682 2 8.2 -9.4 0 0 0 0 1 4
1683 2 8.4 -9.4 0 0 0 0 1 4
1732 2 8.2 -9.2 0 0 0 0 1 4
1733 2 8.4 -9.2 0 0 0 0 1 4
1684 2 8.6 -9.4 0 0 0 0 1 4
1685 2 8.8 -9.4 0 0 0 0 1 4
1734 2 8.6 -9.2 0 0 0 0 1 4
1735 2 8.8 -9.2 0 0 0 0 1 4
1686 2 9 -9.4 0 0 0 0 1 4
1687 2 9.2 -9.4 0 0 0 0 1 4
1736 2 9 -9.2 0 0 0 0 1 4
1737 2 9.2 -9.2 0 0 0 0 1 4
1688 2 9.4 -9.4 0 0 0 0 1 4
1689 2 9.6 -9.4 0 0 0 0 1 4
1738 2 9.4 -9.2 0 0 0 0 1 4
1739 2 9.6 -9.2 0 0 0 0 1 4
1690 2 9.8 -9.4 0 0 0 0 1 4
1740 2 9.8 -9.2 0 0 0 0 1 4
1691 2 10 -9.4 0 0 0 0 1 4
1741 2 10 -9.2 0 0 0 0 1 4
1692 2 10.2 -9.4 0 0 0 0 1 4
1742 2 10.2 -9.2 0 0 0 0 1 4
1693 2 10.4 -9.4 0 0 0 0 1 4
1743 2 10.4 -9.2 0 0 0 0 1 4
1694 2 10.6 -9.4 0 0 0 0 1 4
1744 2 10.6 -9.2 0 0 0 0 1 4
1695 2 10.8 -9.4 0 0 0 0 1 4
1745 2 10.8 -9.2 0 0 0 0 1 4
1751 2 2 -9 0 0 0 0 1 4
1801 2 2 -8.8 0 0 0 0 1 4
1752 2 2.2 -9 0 0 0 0 1 4
1753 2 2.4 -9 0 0 0 0 1 4
1802 2 2.2 -8.8 0 0 0 0 1 4
1803 2 2.4 -8.8 0 0 0 0 1 4
1754 2 2.6 -9 0 0 0 0 1 4
1755 2 2.8 -9 0 0 0 0 1 4
1804 2 2.6 -8.8 0 0 0 0 1 4
1805 2 2.8 -8.8 0 0 0 0 1 4
1756 2 3 -9 0 0 0 0 1 4
1757 2 3.2 -9 0 0 0 0 1 4
1806 2 3 -8.8 0 0 0 0 1 4
1807 2 3.2 -8.8 0 0 0 0 1 4
1758 2 3.4 -9 0 0 0 0 1 4
1759 2 3.6 -9 0 0 0 0 1 4
1808 2 3.4 -8.8 0 0 0 0 1 4
1809 2 3.6 -8.8 0 0 0 0 1 4
1760 2 3.8 -9 0 0 0 0 1 4
1810 2 3.8 -8.8 0 0 0 0 1 4
1761 2 4 -9 0 0 0 0 1 4
1811 2 4 -8.8 0 0 0 0 1 4
1762 2 4.2 -9 0 0 0 0 1 4
1812 2 4.2 -8.8 0 0 0 0 1 4
1763 2 4.4 -9 0 0 0 0 1 4
1764 2 4.6 -9 0 0 0 0 1 4
1813 2 4.4 -8.8 0 0 0 0 1 4
1814 2 4.6 -8.8 0 0 0 0 1 4
1765 2 4.8 -9 0 0 0 0 1 4
1766 2 5 -9 0 0 0 0 1 4
1815 2 4.8 -8.8 0 0 0 0 1 4
1816 2 5 -8.8 0 0 0 0 1 4
1767 2 5.2 -9 0 0 0 0 1 4
1768 2 5.4 -9 0 0 0 0 1 4
1817 2 5.2 -8.8 0 0 0 0 1 4
1818 2 5.4 -8.8 0 0 0 0 1 4
1769 2 5.6 -9 0 0 0 0 1 4
1770 2 5.8 -9 0 0 0 0 1 4
1819 2 5.6 -8.8 0 0 0 0 1 4
1820 2 5.8 -8.8 0 0 0 0 1 4
1771 2 6 -9 0 0 0 0 1 4
1772 2 6.2 -9 0 0 0 0 1 4
1821 2 6 -8.8 0 0 0 0 1 4
1822 2 6.2 -8.8 0 0 0 0 1 4
1773 2 6.4 -9 0 0 0 0 1 4
1774 2 6.6 -9 0 0 0 0 1 4
1823 2 6.4 -8.8 0 0 0 0 1 4
1824 2 6.6 -8.8 0 0 0 0 1 4
1775 2 6.8 -9 0 0 0 0 1 4
1776 2 7 -9 0 0 0 0 1 4
1825 2 6.8 -8.8 0 0 0 0 1 4
1826 2 7 -8.8 0 0 0 0 1 4
1777 2 7.2 -9 0 0 0 0 1 4
1827 2 7.2 -8.8 0 0 0 0 1 4
1778 2 7.4 -9 0 0 0 0 1 4
1779 2 7.6 -9 0 0 0 0 1 4
1828 2 7.4 -8.8 0 0 0 0 1 4
1829 2 7.6 -8.8 0 0 0 0 1 4
1780 2 7.8 -9 0 0 0 0 1 4
1781 2 8 -9 0 0 0 0 1 4
1830 2 7.8 -8.8 0 0 0 0 1 4
1831 2 8 -8.8 0 0 0 0 1 4
1782 2 8.2 -9 0 0 0 0 1 4
1783 2 8.4 -9 0 0 0 0 1 4
1832 2 8.2 -8.8 0 0 0 0 1 4
1833 2 8.4 -8.8 0 0 0 0 1 4
1784 2 8.6 -9 0 0 0 0 1 4
1785 2 8.8 -9 0 0 0 0 1 4
1834 2 8.6 -8.8 0 0 0 0 1 4
1835 2 8.8 -8.8 0 0 0 0 1 4
1786 2 9 -9 0 0 0 0 1 4
1787 2 9.2 -9 0 0 0 0 1 4
1836 2 9 -8.8 0 0 0 0 1 4
1837 2 9.2 -8.8 0 0 0 0 1 4
1788 2 9.4 -9 0 0 0 0 1 4
1789 2 9.6 -9 0 0 0 0 1 4
1838 2 9.4 -8.8 0 0 0 0 1 4
1839 2 9.6 -8.8 0 0 0 0 1 4
1790 2 9.8 -9 0 0 0 0 1 4
1840 2 9.8 -8.8 0 0 0 0 1 4
1791 2 10 -9 0 0 0 0 1 4
1841 2 10 -8.8 0 0 0 0 1 4
1792 2 10.2 -9 0 0 0 0 1 4
1842 2 10.2 -8.8 0 0 0 0 1 4
1793 2 10.4 -9 0 0 0 0 1 4
1843 2 10.4 -8.8 0 0 0 0 1 4
1794 2 10.6 -9 0 0 0 0 1 4
1844 2 10.6 -8.8 0 0 0 0 1 4
1795 2 10.8 -9 0 0 0 0 1 4
1845 2 10.8 -8.8 0 0 0 0 1 4
1851 2 2 -8.6 0 0 0 0 1 4
1901 2 2 -8.4 0 0 0 0 1 4
1852 2 2.2 -8.6 0 0 0 0 1 4
1853 2 2.4 -8.6 0 0 0 0 1 4
1902 2 2.2 -8.4 0 0 0 0 1 4
1903 2 2.4 -8.4 0 0 0 0 1 4
1854 2 2.6 -8.6 0 0 0 0 1 4
1855 2 2.8 -8.6 0 0 0 0 1 4
1904 2 2.6 -8.4 0 0 0 0 1 4
1905 2 2.8 -8.4 0 0 0 0 1 4
1856 2 3 -8.6 0 0 0 0 1 4
1857 2 3.2 -8.6 0 0 0 0 1 4
1906 2 3 -8.4 0 0 0 0 1 4
1907 2 3.2 -8.4 0 0 0 0 1 4
1858 2 3.4 -8.6 0 0 0 0 1 4
1859 2 3.6 -8.6 0 0 0 0 1 4
1908 2 3.4 -8.4 0 0 0 0 1 4
1909 2 3.6 -8.4 0 0 0 0 1 4
1860 2 3.8 -8.6 0 0 0 0 1 4
1910 2 3.8 -8.4 0 0 0 0 1 4
1861 2 4 -8.6 0 0 0 0 1 4
1911 2 4 -8.4 0 0 0 0 1 4
1862 2 4.2 -8.6 0 0 0 0 1 4
1912 2 4.2 -8.4 0 0 0 0 1 4
1863 2 4.4 -8.6 0 0 0 0 1 4
1864 2 4.6 -8.6 0 0 0 0 1 4
1913 2 4.4 -8.4 0 0 0 0 1 4
1914 2 4.6 -8.4 0 0 0 0 1 4
1865 2 4.8 -8.6 0 0 0 0 1 4
1866 2 5 -8.6 0 0 0 0 1 4
1915 2 4.8 -8.4 0 0 0 0 1 4
1916 2 5 -8.4 0 0 0 0 1 4
1867 2 5.2 -8.6 0 0 0 0 1 4
1868 2 5.4 -8.6 0 0 0 0 1 4
1917 2 5.2 -8.4 0 0 0 0 1 4
1918 2 5.4 -8.4 0 0 0 0 1 4
1869 2 5.6 -8.6 0 0 0 0 1 4
1870 2 5.8 -8.6 0 0 0 0 1 4
1919 2 5.6 -8.4 0 0 0 0 1 4
1920 2 5.8 -8.4 0 0 0 0 1 4
1871 2 6 -8.6 0 0 0 0 1 4
1872 2 6.2 -8.6 0 0 0 0 1 4
1921 2 6 -8.4 0 0 0 0 1 4
1922 2 6.2 -8.4 0 0 0 0 1 4
1873 2 6.4 -8.6 0 0 0 0 1 4
1874 2 6.6 -8.6 0 0 0 0 1 4
1923 2 6.4 -8.4 0 0 0 0 1 4
1924 2 6.6 -8.4 0 0 0 0 1 4
1875 2 6.8 -8.6 0 0 0 0 1 4
1876 2 7 -8.6 0 0 0 0 1 4
1925 2 6.8 -8.4 0 0 0 0 1 4
1926 2 7 -8.4 0 0 0 0 1 4
1877 2 7.2 -8.6 0 0 0 0 1 4
1927 2 7.2 -8.4 0 0 0 0 1 4
1878 2 7.4 -8.6 0 0 0 0 1 4
1879 2 7.6 -8.6 0 0 0 0 1 4
1928 2 7.4 -8.4 0 0 0 0 1 4
1929 2 7.6 -8.4 0 0 0 0 1 4
1880 2 7.8 -8.6 0 0 0 0 1 4
1881 2 8 -8.6 0 0 0 0 1 4
1930 2 7.8 -8.4 0 0 0 0 1 4
1931 2 8 -8.4 0 0 0 0 1 4
1882 2 8.2 -8.6 0 0 0 0 1 4
1883 2 8.4 -8.6 0 0 0 0 1 4
1932 2 8.2 -8.4 0 0 0 0 1 4
1933 2 8.4 -8.4 0 0 0 0 1 4
1884 2 8.6 -8.6 0 0 0 0 1 4
1885 2 8.8 -8.6 0 0 0 0 1 4
1934 2 8.6 -8.4 0 0 0 0 1 4
1935 2 8.8 -8.4 0 0 0 0 1 4
1886 2 9 -8.6 0 0 0 0 1 4
1887 2 9.2 -8.6 0 0 0 0 1 4
1936 2 9 -8.4 0 0 0 0 1 4
1937 2 9.2 -8.4 0 0 0 0 1 4
1888 2 9.4 -8.6 0 0 0 0 1 4
1889 2 9.6 -8.6 0 0 0 0 1 4
1938 2 9.4 -8.4 0 0 0 0 1 4
1939 2 9.6 -8.4 0 0 0 0 1 4
1890 2 9.8 -8.6 0 0 0 0 1 4
1940 2 9.8 -8.4 0 0 0 0 1 4
1891 2 10 -8.6 0 0 0 0 1 4
1941 2 10 -8.4 0 0 0 0 1 4
1892 2 10.2 -8.6 0 0 0 0 1 4
1942 2 10.2 -8.4 0 0 0 0 1 4
1893 2 10.4 -8.6 0 0 0 0 1 4
1943 2 10.4 -8.4 0 0 0 0 1 4
1894 2 10.6 -8.6 0 0 0 0 1 4
1944 2 10.6 -8.4 0 0 0 0 1 4
1895 2 10.8 -8.6 0 0 0 0 1 4
1945 2 10.8 -8.4 0 0 0 0 1 4
1951 2 2 -8.2 0 0 0 0 1 4
2001 2 2 -8 0 0 0 0 1 4
1952 2 2.2 -8.2 0 0 0 0 1 4
1953 2 2.4 -8.2 0 0 0 0 1 4
2002 2 2.2 -8 0 0 0 0 1 4
2003 2 2.4 -8 0 0 0 0 1 4
1954 2 2.6 -8.2 0 0 0 0 1 4
1955 2 2.8 -8.2 0 0 0 0 1 4
2004 2 2.6 -8 0 0 0 0 1 4
2005 2 2.8 -8 0 0 0 0 1 4
1956 2 3 -8.2 0 0 0 0 1 4
1957 2 3.2 -8.2 0 0 0 0 1 4
2006 2 3 -8 0 0 0 0 1 4
2007 2 3.2 -8 0 0 0 0 1 4
1958 2 3.4 -8.2 0 0 0 0 1 4
1959 2 3.6 -8.2 0 0 0 0 1 4
2008 2 3.4 -8 0 0 0 0 1 4
2009 2 3.6 -8 0 0 0 0 1 4
1960 2 3.8 -8.2 0 0 0 0 1 4
2010 2 3.8 -8 0 0 0 0 1 4
1961 2 4 -8.2 0 0 0 0 1 4
2011 2 4 -8 0 0 0 0 1 4
1962 2 4.2 -8.2 0 0 0 0 1 4
2012 2 4.2 -8 0 0 0 0 1 4
1963 2 4.4 -8.2 0 0 0 0 1 4
1964 2 4.6 -8.2 0 0 0 0 1 4
2013 2 4.4 -8 0 0 0 0 1 4
2014 2 4.6 -8 0 0 0 0 1 4
1965 2 4.8 -8.2 0 0 0 0 1 4
1966 2 5 -8.2 0 0 0 0 1 4
2015 2 4.8 -8 0 0 0 0 1 4
2016 2 5 -8 0 0 0 0 1 4
1967 2 5.2 -8.2 0 0 0 0 1 4
1968 2 5.4 -8.2 0 0 0 0 1 4
2017 2 5.2 -8 0 0 0 0 1 4
2018 2 5.4 -8 0 0 0 0 1 4
1969 2 5.6 -8.2 0 0 0 0 1 4
1970 2 5.8 -8.2 0 0 0 0 1 4
2019 2 5.6 -8 0 0 0 0 1 4
2020 2 5.8 -8 0 0 0 0 1 4
1971 2 6 -8.2 0 0 0 0 1 4
1972 2 6.2 -8.2 0 0 0 0 1 4
2021 2 6 -8 0 0 0 0 1 4
2022 2 6.2 -8 0 0 0 0 1 4
1973 2 6.4 -8.2 0 0 0 0 1 4
1974 2 6.6 -8.2 0 0 0 0 1 4
2023 2 6.4 -8 0 0 0 0 1 4
2024 2 6.6 -8 0 0 0 0 1 4
1975 2 6.8 -8.2 0 0 0 0 1 4
1976 2 7 -8.2 0 0 0 0 1 4
2025 2 6.8 -8 0 0 0 0 1 4
2026 2 7 -8 0 0 0 0 1 4
1977 2 7.2 -8.2 0 0 0 0 1 4
2027 2 7.2 -8 0 0 0 0 1 4
1978 2 7.4 -8.2 0 0 0 0 1 4
1979 2 7.6 -8.2 0 0 0 0 1 4
2028 2 7.4 -8 0 0 0 0 1 4
2029 2 7.6 -8 0 0 0 0 1 4
1980 2 7.8 -8.2 0 0 0 0 1 4
1981 2 8 -8.2 0 0 0 0 1 4
2030 2 7.8 -8 0 0 0 0 1 4
2031 2 8 -8 0 0 0 0 1 4
1982 2 8.2 -8.2 0 0 0 0 1 4
1983 2 8.4 -8.2 0 0 0 0 1 4
2032 2 8.2 -8 0 0 0 0 1 4
2033 2 8.4 -8 0 0 0 0 1 4
1984 2 8.6 -8.2 0 0 0 0 1 4
1985 2 8.8 -8.2 0 0 0 0 1 4
2034 2 8.6 -8 0 0 0 0 1 4
2035 2 8.8 -8 0 0 0 0 1 4
1986 2 9 -8.2 0 0 0 0 1 4
1987 2 9.2 -8.2 0 0 0 0 1 4
2036 2 9 -8 0 0 0 0 1 4
2037 2 9.2 -8 0 0 0 0 1 4
1988 2 9.4 -8.2 0 0 0 0 1 4
1989 2 9.6 -8.2 0 0 0 0 1 4
2038 2 9.4 -8 0 0 0 0 1 4
2039 2 9.6 -8 0 0 0 0 1 4
1990 2 9.8 -8.2 0 0 0 0 1 4
2040 2 9.8 -8 0 0 0 0 1 4
1991 2 10 -8.2 0 0 0 0 1 4
2041 2 10 -8 0 0 0 0 1 4
1992 2 10.2 -8.2 0 0 0 0 1 4
2042 2 10.2 -8 0 0 0 0 1 4
1993 2 10.4 -8.2 0 0 0 0 1 4
2043 2 10.4 -8 0 0 0 0 1 4
1994 2 10.6 -8.2 0 0 0 0 1 4
2044 2 10.6 -8 0 0 0 0 1 4
1995 2 10.8 -8.2 0 0 0 0 1 4
2045 2 10.8 -8 0 0 0 0 1 4
2051 2 2 -7.8 0 0 0 0 1 4
2101 2 2 -7.6 0 0 0 0 1 4
2151 2 2 -7.4 0 0 0 0 0.999613 4
2052 2 2.2 -7.8 0 0 0 0 1 4
2053 2 2.4 -7.8 0 0 0 0 1 4
2102 2 2.2 -7.6 0 0 0 0 1 4
2103 2 2.4 -7.6 0 0 0 0 1 4
2152 2 2.2 -7.4 0 0 0 0 0.999613 4
2153 2 2.4 -7.4 0 0 0 0 0.999982 4
2054 2 2.6 -7.8 0 0 0 0 1 4
2055 2 2.8 -7.8 0 0 0 0 1 4
2104 2 2.6 -7.6 0 0 0 0 1 4
2105 2 2.8 -7.6 0 0 0 0 1 4
2154 2 2.6 -7.4 0 0 0 0 0.999988 4
2155 2 2.8 -7.4 0 0 0 0 1 4
2056 2 3 -7.8 0 0 0 0 1 4
2057 2 3.2 -7.8 0 0 0 0 1 4
2106 2 3 -7.6 0 0 0 0 1 4
2107 2 3.2 -7.6 0 0 0 0 1 4
2156 2 3 -7.4 0 0 0 0 1 4
2157 2 3.2 -7.4 0 0 0 0 0.999997 4
2058 2 3.4 -7.8 0 0 0 0 1 4
2059 2 3.6 -7.8 0 0 0 0 1 4
2108 2 3.4 -7.6 0 0 0 0 1 4
2109 2 3.6 -7.6 0 0 0 0 1 4
2158 2 3.4 -7.4 0 0 0 0 1.00002 4
2159 2 3.6 -7.4 0 0 0 0 1.00003 4
2060 2 3.8 -7.8 0 0 0 0 1 4
2110 2 3.8 -7.6 0 0 0 0 1 4
2160 2 3.8 -7.4 0 0 0 0 1.0002 4
2061 2 4 -7.8 0 0 0 0 1 4
2111 2 4 -7.6 0 0 0 0 1 4
2161 2 4 -7.4 0 0 0 0 1.00616 4
2062 2 4.2 -7.8 0 0 0 0 1 4
2112 2 4.2 -7.6 0 0 0 0 1 4
2162 2 4.2 -7.4 0 0 0 0 1.00761 4
2063 2 4.4 -7.8 0 0 0 0 1 4
2064 2 4.6 -7.8 0 0 0 0 1 4
2113 2 4.4 -7.6 0 0 0 0 1 4
2114 2 4.6 -7.6 0 0 0 0 1 4
2163 2 4.4 -7.4 0 0 0 0 1.00541 4
2164 2 4.6 -7.4 0 0 0 0 1.00311 4
2065 2 4.8 -7.8 0 0 0 0 1 4
2066 2 5 -7.8 0 0 0 0 1 4
2115 2 4.8 -7.6 0 0 0 0 1 4
2116 2 5 -7.6 0 0 0 0 1 4
2165 2 4.8 -7.4 0 0 0 0 1.00221 4
2166 2 5 -7.4 0 0 0 0 1.00179 4
2067 2 5.2 -7.8 0 0 0 0 1 4
2068 2 5.4 -7.8 0 0 0 0 1 4
2117 2 5.2 -7.6 0 0 0 0 1 4
2118 2 5.4 -7.6 0 0 0 0 1 4
2167 2 5.2 -7.4 0 0 0 0 1.00179 4
2168 2 5.4 -7.4 0 0 0 0 1.00178 4
2069 2 5.6 -7.8 0 0 0 0 1 4
2070 2 5.8 -7.8 0 0 0 0 1 4
2119 2 5.6 -7.6 0 0 0 0 1 4
2120 2 5.8 -7.6 0 0 0 0 1 4
2169 2 5.6 -7.4 0 0 0 0 1.00176 4
2170 2 5.8 -7.4 0 0 0 0 1.00167 4
2071 2 6 -7.8 0 0 0 0 1 4
2072 2 6.2 -7.8 0 0 0 0 1 4
2121 2 6 -7.6 0 0 0 0 1 4
2122 2 6.2 -7.6 0 0 0 0 1 4
2171 2 6 -7.4 0 0 0 0 1.00144 4
2172 2 6.2 -7.4 0 0 0 0 1.00159 4
2073 2 6.4 -7.8 0 0 0 0 1 4
2074 2 6.6 -7.8 0 0 0 0 1 4
2123 2 6.4 -7.6 0 0 0 0 1 4
2124 2 6.6 -7.6 0 0 0 0 1 4
2173 2 6.4 -7.4 0 0 0 0 1.00165 4
2174 2 6.6 -7.4 0 0 0 0 1.00152 4
2075 2 6.8 -7.8 0 0 0 0 1 4
2076 2 7 -7.8 0 0 0 0 1 4
2125 2 6.8 -7.6 0 0 0 0 1 4
2126 2 7 -7.6 0 0 0 0 1 4
2175 2 6.8 -7.4 0 0 0 0 1.00157 4
2176 2 7 -7.4 0 0 0 0 1.00164 4
2077 2 7.2 -7.8 0 0 0 0 1 4
2127 2 7.2 -7.6 0 0 0 0 1 4
2177 2 7.2 -7.4 0 0 0 0 1.0016 4
2078 2 7.4 -7.8 0 0 0 0 1 4
2079 2 7.6 -7.8 0 0 0 0 1 4
2128 2 7.4 -7.6 0 0 0 0 1 4
2129 2 7.6 -7.6 0 0 0 0 1 4
2178 2 7.4 -7.4 0 0 0 0 1.00152 4
2179 2 7.6 -7.4 0 0 0 0 1.00162 4
2080 2 7.8 -7.8 0 0 0 0 1 4
2081 2 8 -7.8 0 0 0 0 1 4
2130 2 7.8 -7.6 0 0 0 0 1 4
2131 2 8 -7.6 0 0 0 0 1 4
2180 2 7.8 -7.4 0 0 0 0 1.00149 4
2181 2 8 -7.4 0 0 0 0 1.00154 4
2082 2 8.2 -7.8 0 0 0 0 1 4
2083 2 8.4 -7.8 0 0 0 0 1 4
2132 2 8.2 -7.6 0 0 0 0 1 4
2133 2 8.4 -7.6 0 0 0 0 1 4
2182 2 8.2 -7.4 0 0 0 0 1.0014 4
2183 2 8.4 -7.4 0 0 0 0 1.00149 4
2084 2 8.6 -7.8 0 0 0 0 1 4
2085 2 8.8 -7.8 0 0 0 0 1 4
2134 2 8.6 -7.6 0 0 0 0 1 4
2135 2 8.8 -7.6 0 0 0 0 1 4
2184 2 8.6 -7.4 0 0 0 0 1.00148 4
2185 2 8.8 -7.4 0 0 0 0 1.00143 4
2086 2 9 -7.8 0 0 0 0 1 4
2087 2 9.2 -7.8 0 0 0 0 1 4
2136 2 9 -7.6 0 0 0 0 1 4
2137 2 9.2 -7.6 0 0 0 0 1 4
2186 2 9 -7.4 0 0 0 0 1.00149 4
2187 2 9.2 -7.4 0 0 0 0 1.00142 4
2088 2 9.4 -7.8 0 0 0 0 1 4
2089 2 9.6 -7.8 0 0 0 0 1 4
2138 2 9.4 -7.6 0 0 0 0 1 4
2139 2 9.6 -7.6 0 0 0 0 1 4
2188 2 9.4 -7.4 0 0 0 0 1.00142 4
2189 2 9.6 -7.4 0 0 0 0 1.00135 4
2090 2 9.8 -7.8 0 0 0 0 1 4
2140 2 9.8 -7.6 0 0 0 0 1 4
2190 2 9.8 -7.4 0 0 0 0 1.00131 4
2091 2 10 -7.8 0 0 0 0 1 4
2141 2 10 -7.6 0 0 0 0 1 4
2191 2 10 -7.4 0 0 0 0 1.00132 4
2092 2 10.2 -7.8 0 0 0 0 1 4
2142 2 10.2 -7.6 0 0 0 0 1 4
2192 2 10.2 -7.4 0 0 0 0 1.00127 4
2093 2 10.4 -7.8 0 0 0 0 1 4
2143 2 10.4 -7.6 0 0 0 0 1 4
2193 2 10.4 -7.4 0 0 0 0 1.00138 4
2094 2 10.6 -7.8 0 0 0 0 1 4
2144 2 10.6 -7.6 0 0 0 0 1 4
2194 2 10.6 -7.4 0 0 0 0 1.00117 4
2095 2 10.8 -7.8 0 0 0 0 1 4
2145 2 10.8 -7.6 0 0 0 0 1 4
2195 2 10.8 -7.4 0 0 0 0 1.00125 4
2201 2 2 -7.2 0 0 0 0 0.99962 4
2251 2 2 -7 0 0 0 0 0.999654 4
2202 2 2.2 -7.2 0 0 0 0 0.999707 4
2203 2 2.4 -7.2 0 0 0 0 0.999911 4
2252 2 2.2 -7 0 0 0 0 0.999752 4
2253 2 2.4 -7 0 0 0 0 0.999913 4
2204 2 2.6 -7.2 0 0 0 0 0.999991 4
2205 2 2.8 -7.2 0 0 0 0 1 4
2254 2 2.6 -7 0 0 0 0 0.999989 4
2255 2 2.8 -7 0 0 0 0 0.999999 4
2206 2 3 -7.2 0 0 0 0 1 4
2207 2 3.2 -7.2 0 0 0 0 1 4
2256 2 3 -7 0 0 0 0 1 4
2257 2 3.2 -7 0 0 0 0 1 4
2208 2 3.4 -7.2 0 0 0 0 1.00001 4
2209 2 3.6 -7.2 0 0 0 0 1.0001 4
2258 2 3.4 -7 0 0 0 0 1.00001 4
2259 2 3.6 -7 0 0 0 0 1.00031 4
2210 2 3.8 -7.2 0 0 0 0 1.0027 4
2260 2 3.8 -7 0 0 0 0 1.00347 4
2211 2 4 -7.2 0 0 0 0 1.00889 4
2261 2 4 -7 0 0 0 0 1.00872 4
2212 2 4.2 -7.2 0 0 0 0 1.00902 4
2262 2 4.2 -7 0 0 0 0 1.00906 4
2213 2 4.4 -7.2 0 0 0 0 1.0059 4
2214 2 4.6 -7.2 0 0 0 0 1.00337 4
2263 2 4.4 -7 0 0 0 0 1.00615 4
2264 2 4.6 -7 0 0 0 0 1.00373 4
2215 2 4.8 -7.2 0 0 0 0 1.0025 4
2216 2 5 -7.2 0 0 0 0 1.00218 4
2265 2 4.8 -7 0 0 0 0 1.00286 4
2266 2 5 -7 0 0 0 0 1.00253 4
2217 2 5.2 -7.2 0 0 0 0 1.00209 4
2218 2 5.4 -7.2 0 0 0 0 1.00199 4
2267 2 5.2 -7 0 0 0 0 1.00235 4
2268 2 5.4 -7 0 0 0 0 1.00217 4
2219 2 5.6 -7.2 0 0 0 0 1.00189 4
2220 2 5.8 -7.2 0 0 0 0 1.00176 4
2269 2 5.6 -7 0 0 0 0 1.00203 4
2270 2 5.8 -7 0 0 0 0 1.00188 4
2221 2 6 -7.2 0 0 0 0 1.00159 4
2222 2 6.2 -7.2 0 0 0 0 1.00171 4
2271 2 6 -7 0 0 0 0 1.00174 4
2272 2 6.2 -7 0 0 0 0 1.00181 4
2223 2 6.4 -7.2 0 0 0 0 1.0017 4
2224 2 6.6 -7.2 0 0 0 0 1.00162 4
2273 2 6.4 -7 0 0 0 0 1.00178 4
2274 2 6.6 -7 0 0 0 0 1.00172 4
2225 2 6.8 -7.2 0 0 0 0 1.00166 4
2226 2 7 -7.2 0 0 0 0 1.00171 4
2275 2 6.8 -7 0 0 0 0 1.00174 4
2276 2 7 -7 0 0 0 0 1.00177 4
2227 2 7.2 -7.2 0 0 0 0 1.00164 4
2277 2 7.2 -7 0 0 0 0 1.00171 4
2228 2 7.4 -7.2 0 0 0 0 1.0016 4
2229 2 7.6 -7.2 0 0 0 0 1.00166 4
2278 2 7.4 -7 0 0 0 0 1.00168 4
2279 2 7.6 -7 0 0 0 0 1.00169 4
2230 2 7.8 -7.2 0 0 0 0 1.00157 4
2231 2 8 -7.2 0 0 0 0 1.00155 4
2280 2 7.8 -7 0 0 0 0 1.00162 4
2281 2 8 -7 0 0 0 0 1.00159 4
2232 2 8.2 -7.2 0 0 0 0 1.00148 4
2233 2 8.4 -7.2 0 0 0 0 1.00153 4
2282 2 8.2 -7 0 0 0 0 1.00154 4
2283 2 8.4 -7 0 0 0 0 1.00158 4
2234 2 8.6 -7.2 0 0 0 0 1.00154 4
2235 2 8.8 -7.2 0 0 0 0 1.0015 4
2284 2 8.6 -7 0 0 0 0 1.00158 4
2285 2 8.8 -7 0 0 0 0 1.00155 4
2236 2 9 -7.2 0 0 0 0 1.00151 4
2237 2 9.2 -7.2 0 0 0 0 1.00146 4
2286 2 9 -7 0 0 0 0 1.00154 4
2287 2 9.2 -7 0 0 0 0 1.00149 4
2238 2 9.4 -7.2 0 0 0 0 1.00143 4
2239 2 9.6 -7.2 0 0 0 0 1.00139 4
2288 2 9.4 -7 0 0 0 0 1.00146 4
2289 2 9.6 -7 0 0 0 0 1.00143 4
2240 2 9.8 -7.2 0 0 0 0 1.00136 4
2290 2 9.8 -7 0 0 0 0 1.0014 4
2241 2 10 -7.2 0 0 0 0 1.00132 4
2291 2 10 -7 0 0 0 0 1.00136 4
2242 2 10.2 -7.2 0 0 0 0 1.00131 4
2292 2 10.2 -7 0 0 0 0 1.00134 4
2243 2 10.4 -7.2 0 0 0 0 1.00137 4
2293 2 10.4 -7 0 0 0 0 1.00136 4
2244 2 10.6 -7.2 0 0 0 0 1.00123 4
2294 2 10.6 -7 0 0 0 0 1.00129 4
2245 2 10.8 -7.2 0 0 0 0 1.00129 4
2295 2 10.8 -7 0 0 0 0 1.00131 4
14312 1 2.17579 -6.76109 0.02 0 0 0 0.999807 1
14313 1 2.19612 -6.57974 0.02 0 0 0 0.99993 1
14314 1 2.38666 -6.74254 0.02 0 0 0 0.999998 1
14316 1 2.41145 -6.56775 0.02 0 0 0 1 1
14315 1 2.59907 -6.7662 0.02 0 0 0 0.999994 1
14317 1 2.61712 -6.57957 0.02 0 0 0 1 1
14318 1 2.82345 -6.76418 0.02 0 0 0 1 1
14320 1 2.82314 -6.58622 0.02 0 0 0 0.999998 1
14319 1 3.03622 -6.75047 0.02 0 0 0 1 1
14321 1 3.03301 -6.5729 0.02 0 0 0 1 1
14322 1 3.23865 -6.74763 0.02 0 0 0 0.999998 1
14323 1 3.24727 -6.56684 0.02 0 0 0 1 1
14324 1 3.44174 -6.75299 0.02 0 0 0 1.00001 1
14325 1 3.64252 -6.73295 0.02 0 0 0 1.00002 1
14326 1 3.45655 -6.57075 0.02 0 0 0 1 1
14327 1 3.66292 -6.55006 0.02 0 0 0 1.00002 1
13985 1 4.01138 -6.73308 0.0121648 0.00159345 6.42182e-06 1.24487e-05 1.01184 0
13986 1 4.02424 -6.55 0.0164494 0.00293489 1.14467e-06 1.18856e-05 1.01051 0
14328 1 3.84136 -6.75624 0.02 0 0 0 1.0001 1
14329 1 3.85826 -6.56449 0.02 0 0 0 1.0001 1
13987 1 4.16403 -6.73966 0.00969781 0.00107229 3.72146e-06 1.11993e-05 1.01072 0
13989 1 4.18501 -6.50987 0.0161414 0.00340415 2.89523e-06 1.98149e-05 1.00921 0
13988 1 4.32446 -6.59909 0.0135432 0.00219689 3.78369e-06 1.77953e-05 1.00679 0
13990 1 4.3744 -6.42032 0.0167006 0.00335963 2.16174e-06 2.12473e-05 1.0062 0
13991 1 4.35089 -6.77038 0.00754429 0.000684337 3.46222e-06 9.53672e-06 1.00694 0
13993 1 4.5325 -6.4706 0.0148442 0.00249418 4.7757e-06 1.85509e-05 1.00494 0
13992 1 4.50481 -6.66054 0.0102193 0.00126805 3.34222e-06 1.34911e-05 1.00447 0
13995 1 4.70122 -6.54146 0.0119986 0.0015046 9.40744e-06 1.30197e-05 1.00407 0
13996 1 4.64909 -6.72687 0.00694255 0.000477101 6.89305e-06 7.89648e-06 1.00387 0
13999 1 4.89033 -6.55174 0.0103607 0.00101792 1.5229e-05 6.36778e-06 1.00349 0
14001 1 5.06504 -6.48851 0.0106562 0.00107623 1.73293e-05 1.34533e-06 1.00322 0
14002 1 4.81141 -6.7458 0.00541248 0.000208396 1.0704e-05 4.00847e-06 1.00362 0
13631 1 4.99338 -6.70284 0.00576977 0.000238285 1.54036e-05 2.5856e-07 1.00297 0
13634 1 5.19706 -6.59812 0.00760541 0.000522813 1.82146e-05 -2.98799e-06 1.00269 0
13638 1 5.17168 -6.78301 0.00359876 -3.80309e-06 1.41951e-05 -3.08318e-06 1.00283 0
13642 1 5.36199 -6.64726 0.00584357 0.000378236 1.52813e-05 -5.02573e-06 1.00227 0
13649 1 5.55673 -6.59103 0.00641833 0.00048186 1.13351e-05 -6.44788e-06 1.00218 0
13276 1 5.50827 -6.7719 0.00309488 8.77671e-05 9.74418e-06 -4.88212e-06 1.00229 0
13272 1 5.82839 -6.59265 0.00569452 0.000404169 2.86097e-06 -4.98223e-06 1.00198 0
13280 1 6.03786 -6.53792 0.00618505 0.000445619 -2.78621e-06 -3.92397e-06 1.00194 0
12923 1 5.71843 -6.75236 0.0030429 9.08588e-05 5.67653e-06 -4.15399e-06 1.00219 0
12927 1 5.94591 -6.72382 0.00316553 0.000106486 1.05213e-06 -2.76276e-06 1.00186 0
12934 1 6.20639 -6.59994 0.00486901 0.00029522 -4.96759e-06 -2.16504e-06 1.00186 0
12585 1 6.15002 -6.77612 0.00227673 3.40922e-05 -1.62344e-06 -1.11745e-06 1.00199 0
12592 1 6.36398 -6.694 0.00321761 0.000129172 -4.91313e-06 -6.14128e-07 1.00183 0
12943 1 6.59424 -6.57008 0.00483682 0.00027304 -7.8686e-06 -3.77238e-07 1.00181 0
12248 1 6.53722 -6.73963 0.00245279 4.80016e-05 -4.67622e-06 1.74711e-07 1.00188 0
12936 1 6.78827 -6.54623 0.00495781 0.00025341 -7.7885e-06 1.20256e-07 1.00181 0
11919 1 6.73242 -6.74737 0.00222062 3.0366e-05 -4.61026e-06 5.30473e-07 1.00187 0
12254 1 6.94147 -6.60516 0.00399273 0.000165658 -6.14795e-06 3.74809e-07 1.00177 0
11924 1 7.15143 -6.59443 0.00397099 0.000157352 -5.03867e-06 4.44796e-07 1.00175 0
11538 1 6.97898 -6.77379 0.00187205 1.49495e-05 -3.53566e-06 6.17164e-07 1.00188 0
11195 1 7.22792 -6.73832 0.00212446 2.49707e-05 -2.98765e-06 4.87161e-07 1.00177 0
12589 1 7.35494 -6.55074 0.00437005 0.000178198 -4.18266e-06 3.81032e-07 1.00173 0
11207 1 7.51066 -6.59685 0.0036671 0.000126708 -3.00548e-06 3.40957e-07 1.00171 0
10864 1 7.45293 -6.77765 0.00167597 -3.94399e-06 -1.95432e-06 3.30028e-07 1.00179 0
12240 1 7.70034 -6.51824 0.00446869 0.000163767 -2.57405e-06 2.49324e-07 1.0017 0
10527 1 7.66884 -6.70205 0.00236944 3.94531e-05 -1.75015e-06 2.05482e-07 1.0017 0
11534 1 7.9183 -6.55971 0.00388063 0.000120142 -1.68205e-06 1.52464e-07 1.00165 0
10538 1 7.84069 -6.73746 0.00192446 7.81443e-06 -1.16902e-06 1.54027e-07 1.0017 0
10178 1 8.02887 -6.70477 0.00220597 1.83455e-05 -9.54145e-07 1.33216e-07 1.00166 0
10185 1 8.19939 -6.68353 0.00236767 1.36526e-05 -8.26331e-07 1.2939e-07 1.00158 0
3116 1 8.35158 -6.76671 0.00154772 -1.7869e-05 -5.06009e-07 1.14305e-07 1.00167 0
11550 1 8.4156 -6.52967 0.00393577 0.000108271 -8.38736e-07 1.44072e-07 1.0016 0
3109 1 8.55093 -6.61991 0.00291864 6.43879e-05 -6.14153e-07 1.15421e-07 1.0016 0
3119 1 8.6165 -6.76627 0.00148297 -8.70579e-06 -3.45762e-07 9.84398e-08 1.00165 0
3113 1 8.82614 -6.63378 0.00266956 5.71739e-05 -4.61264e-07 1.21887e-07 1.00151 0
3123 1 8.89736 -6.77579 0.00136973 -3.55464e-06 -2.53941e-07 8.82372e-08 1.00157 0
3117 1 9.07388 -6.59167 0.00302723 6.14558e-05 -4.55332e-07 1.25073e-07 1.0015 0
3121 1 9.33625 -6.56444 0.00321443 5.6511e-05 -4.6996e-07 1.40083e-07 1.00148 0
3124 1 9.13708 -6.73685 0.00162619 3.7623e-06 -2.64441e-07 9.16787e-08 1.00153 0
3125 1 9.33108 -6.74006 0.00155729 -2.16103e-06 -2.66342e-07 8.48107e-08 1.00151 0
10521 1 9.55587 -6.5443 0.00334556 4.6798e-05 -5.03318e-07 1.79318e-07 1.00145 0
3126 1 9.52339 -6.72545 0.0016619 -1.30159e-05 -2.93969e-07 6.5599e-08 1.0015 0
10174 1 9.75506 -6.54343 0.00331117 3.68906e-05 -5.21229e-07 1.68592e-07 1.00142 0
3127 1 9.70989 -6.72831 0.00161591 -2.07221e-05 -3.07438e-07 6.21363e-08 1.00147 0
3105 1 9.94265 -6.54723 0.00324627 2.16907e-05 -5.54213e-07 1.60032e-07 1.00138 0
3128 1 9.89861 -6.73975 0.00150254 -2.17267e-05 -2.99574e-07 5.55565e-08 1.00145 0
3129 1 10.0904 -6.68505 0.00197082 -1.73352e-05 -4.16108e-07 8.02507e-08 1.00135 0
3131 1 10.2389 -6.76763 0.00129184 -2.22088e-05 -3.09506e-07 5.38083e-08 1.00139 0
3130 1 10.4196 -6.69195 0.00189768 -4.36827e-06 -4.47872e-07 1.01269e-07 1.00138 0
3132 1 10.5946 -6.68655 0.00191569 -2.20829e-05 -5.26456e-07 1.18346e-07 1.00131 0
3114 1 10.3142 -6.53612 0.00329768 1.73446e-05 -6.34012e-07 1.70459e-07 1.00135 0
3134 1 10.7397 -6.76942 0.00127109 -3.1721e-05 -4.25922e-07 9.50893e-08 1.00136 0
3133 1 10.9181 -6.62319 0.00245546 1.41191e-05 -6.50886e-07 1.85946e-07 1.00128 0
13481 1 7.91469 -0.339529 0.0245149 0.000513871 2.50335e-06 -6.01724e-07 1.0016 0
14330 1 2.19777 -6.39966 0.02 0 0 0 1 1
14331 1 2.18401 -6.21768 0.02 0 0 0 1 1
14332 1 2.39952 -6.38993 0.02 0 0 0 1 1
14334 1 2.41286 -6.21074 0.02 0 0 0 1 1
14333 1 2.60794 -6.39446 0.02 0 0 0 1 1
14335 1 2.62833 -6.20884 0.02 0 0 0 1 1
14337 1 2.81879 -6.41096 0.02 0 0 0 1 1
14336 1 2.83553 -6.22944 0.02 0 0 0 1 1
14338 1 3.04101 -6.39878 0.02 0 0 0 1 1
14339 1 3.04343 -6.21988 0.02 0 0 0 1 1
14340 1 3.25845 -6.38951 0.02 0 0 0 1 1
14341 1 3.25457 -6.20844 0.02 0 0 0 1 1
14342 1 3.4707 -6.38875 0.02 0 0 0 1 1
14343 1 3.4591 -6.20064 0.02 0 0 0 1 1
14345 1 3.65634 -6.1728 0.02 0 0 0 1.00001 1
14344 1 3.67645 -6.36308 0.02 0 0 0 1.00002 1
14008 1 4.03459 -6.16357 0.0180324 0.00268385 1.20184e-06 1.09175e-05 1.00664 0
14007 1 4.04479 -6.35192 0.0175387 0.00310357 -7.92453e-08 1.32004e-05 1.00842 0
14346 1 3.87713 -6.37007 0.02 0 0 0 1.00007 1
14347 1 3.8541 -6.17393 0.02 0 0 0 1.00004 1
14009 1 4.21775 -6.31067 0.0178878 0.00408572 -3.08745e-07 1.98107e-05 1.00739 0
14011 1 4.21409 -6.11667 0.0185947 0.00415044 -2.11758e-07 1.67545e-05 1.00612 0
14010 1 4.38843 -6.23604 0.018302 0.00415461 5.27582e-07 2.01955e-05 1.00548 0
14012 1 4.39689 -6.04697 0.0191002 0.00453682 -2.79385e-07 1.72672e-05 1.00479 0
14013 1 4.55442 -6.20075 0.0179532 0.00393481 2.31164e-06 1.80546e-05 1.00467 0
13994 1 4.66353 -6.33793 0.0159117 0.00293069 6.93131e-06 1.59106e-05 1.00447 0
13997 1 4.82994 -6.37262 0.0142452 0.00218651 1.15706e-05 1.03388e-05 1.00404 0
14015 1 4.58462 -6.005 0.0189172 0.00452579 1.16336e-06 1.45243e-05 1.00426 0
14014 1 4.73496 -6.1493 0.0174555 0.00369287 5.05138e-06 1.3143e-05 1.00422 0
14017 1 4.90063 -6.11448 0.0169034 0.00341303 6.70689e-06 7.52525e-06 1.00385 0
13998 1 4.97577 -6.29575 0.0144231 0.00226703 1.23954e-05 5.59538e-06 1.00371 0
14000 1 5.14291 -6.28463 0.013597 0.00198142 1.27237e-05 -1.07964e-08 1.00332 0
14018 1 5.06963 -6.0813 0.0163509 0.00316749 7.0358e-06 1.82489e-06 1.00346 0
14005 1 5.27061 -6.41224 0.0109264 0.00121871 1.49464e-05 -3.0193e-06 1.00292 0
14003 1 5.27269 -6.15559 0.014544 0.00241573 8.19145e-06 -2.89614e-06 1.00309 0
14004 1 5.41433 -6.25427 0.0125998 0.00175664 8.70383e-06 -5.2194e-06 1.00284 0
13633 1 5.44667 -6.44907 0.00948993 0.000960223 1.2482e-05 -5.75684e-06 1.00258 0
14006 1 5.56227 -6.15756 0.0131695 0.00198703 3.52584e-06 -7.0259e-06 1.00267 0
13632 1 5.72501 -6.07823 0.0134255 0.00210057 -1.09028e-06 -8.27006e-06 1.00253 0
13635 1 5.61931 -6.3305 0.0106341 0.00125317 5.66721e-06 -6.9734e-06 1.00252 0
13637 1 5.70698 -6.47764 0.00804098 0.000706238 5.56897e-06 -6.48545e-06 1.00224 0
13636 1 5.8953 -6.02924 0.0133301 0.00206709 -4.72795e-06 -8.43573e-06 1.00242 0
13641 1 5.81418 -6.25345 0.0109644 0.00134727 -7.98527e-07 -7.22562e-06 1.00239 0
13646 1 5.91104 -6.40388 0.0085484 0.000819715 -1.28346e-06 -5.95115e-06 1.00219 0
13639 1 6.00815 -6.15333 0.0115577 0.0015082 -5.97632e-06 -7.09122e-06 1.0023 0