ITEM: TIMESTEP
50000
ITEM: NUMBER OF ATOMS
11650
ITEM: BOX BOUNDS ff ff pp
0.0000000000000000e+00 2.2000000000000000e+01
-1.0000000000000000e+01 1.0000000000000000e+01
-2.0000000000000000e-02 2.0000000000000000e-02
ITEM: ATOMS id type x y vx vy fx fy c_den c_phase
1501 2 2 -10 0 0 0 0 1 5
1551 2 2 -9.8 0 0 0 0 1 5
1601 2 2 -9.6 0 0 0 0 1 5
1502 2 2.2 -10 0 0 0 0 1 5
1503 2 2.4 -10 0 0 0 0 1 5
1552 2 2.2 -9.8 0 0 0 0 1 5
1553 2 2.4 -9.8 0 0 0 0 1 5
1602 2 2.2 -9.6 0 0 0 0 1 5
1603 2 2.4 -9.6 0 0 0 0 1 5
1504 2 2.6 -10 0 0 0 0 1 5
1505 2 2.8 -10 0 0 0 0 1 5
1554 2 2.6 -9.8 0 0 0 0 1 5
1555 2 2.8 -9.8 0 0 0 0 1 5
1604 2 2.6 -9.6 0 0 0 0 1 5
1605 2 2.8 -9.6 0 0 0 0 1 5
1506 2 3 -10 0 0 0 0 1 5
1507 2 3.2 -10 0 0 0 0 1 5
1556 2 3 -9.8 0 0 0 0 1 5
1557 2 3.2 -9.8 0 0 0 0 1 5
1606 2 3 -9.6 0 0 0 0 1 5
1607 2 3.2 -9.6 0 0 0 0 1 5
1508 2 3.4 -10 0 0 0 0 1 5
1509 2 3.6 -10 0 0 0 0 1 5
1558 2 3.4 -9.8 0 0 0 0 1 5
1559 2 3.6 -9.8 0 0 0 0 1 5
1608 2 3.4 -9.6 0 0 0 0 1 5
1609 2 3.6 -9.6 0 0 0 0 1 5
1510 2 3.8 -10 0 0 0 0 1 5
1560 2 3.8 -9.8 0 0 0 0 1 5
1610 2 3.8 -9.6 0 0 0 0 1 5
1511 2 4 -10 0 0 0 0 1 5
1561 2 4 -9.8 0 0 0 0 1 5
1611 2 4 -9.6 0 0 0 0 1 5
1512 2 4.2 -10 0 0 0 0 1 5
1562 2 4.2 -9.8 0 0 0 0 1 5
1612 2 4.2 -9.6 0 0 0 0 1 5
1513 2 4.4 -10 0 0 0 0 1 5
1514 2 4.6 -10 0 0 0 0 1 5
1563 2 4.4 -9.8 0 0 0 0 1 5
1564 2 4.6 -9.8 0 0 0 0 1 5
1613 2 4.4 -9.6 0 0 0 0 1 5
1614 2 4.6 -9.6 0 0 0 0 1 5
1515 2 4.8 -10 0 0 0 0 1 5
1516 2 5 -10 0 0 0 0 1 5
1565 2 4.8 -9.8 0 0 0 0 1 5
1566 2 5 -9.8 0 0 0 0 1 5
1615 2 4.8 -9.6 0 0 0 0 1 5
1616 2 5 -9.6 0 0 0 0 1 5
1517 2 5.2 -10 0 0 0 0 1 5
1518 2 5.4 -10 0 0 0 0 1 5
1567 2 5.2 -9.8 0 0 0 0 1 5
1568 2 5.4 -9.8 0 0 0 0 1 5
1617 2 5.2 -9.6 0 0 0 0 1 5
1618 2 5.4 -9.6 0 0 0 0 1 5
1519 2 5.6 -10 0 0 0 0 1 5
1520 2 5.8 -10 0 0 0 0 1 5
1569 2 5.6 -9.8 0 0 0 0 1 5
1570 2 5.8 -9.8 0 0 0 0 1 5
1619 2 5.6 -9.6 0 0 0 0 1 5
1620 2 5.8 -9.6 0 0 0 0 1 5
1521 2 6 -10 0 0 0 0 1 5
1522 2 6.2 -10 0 0 0 0 1 5
1571 2 6 -9.8 0 0 0 0 1 5
1572 2 6.2 -9.8 0 0 0 0 1 5
1621 2 6 -9.6 0 0 0 0 1 5
1622 2 6.2 -9.6 0 0 0 0 1 5
1523 2 6.4 -10 0 0 0 0 1 5
1524 2 6.6 -10 0 0 0 0 1 5
1573 2 6.4 -9.8 0 0 0 0 1 5
1574 2 6.6 -9.8 0 0 0 0 1 5
1623 2 6.4 -9.6 0 0 0 0 1 5
1624 2 6.6 -9.6 0 0 0 0 1 5
1525 2 6.8 -10 0 0 0 0 1 5
1526 2 7 -10 0 0 0 0 1 5
1575 2 6.8 -9.8 0 0 0 0 1 5
1576 2 7 -9.8 0 0 0 0 1 5
1625 2 6.8 -9.6 0 0 0 0 1 5
1626 2 7 -9.6 0 0 0 0 1 5
1527 2 7.2 -10 0 0 0 0 1 5
1577 2 7.2 -9.8 0 0 0 0 1 5
1627 2 7.2 -9.6 0 0 0 0 1 5
1528 2 7.4 -10 0 0 0 0 1 5
1529 2 7.6 -10 0 0 0 0 1 5
1578 2 7.4 -9.8 0 0 0 0 1 5
1579 2 7.6 -9.8 0 0 0 0 1 5
1628 2 7.4 -9.6 0 0 0 0 1 5
1629 2 7.6 -9.6 0 0 0 0 1 5
1530 2 7.8 -10 0 0 0 0 1 5
1531 2 8 -10 0 0 0 0 1 5
1580 2 7.8 -9.8 0 0 0 0 1 5
1581 2 8 -9.8 0 0 0 0 1 5
1630 2 7.8 -9.6 0 0 0 0 1 5
1631 2 8 -9.6 0 0 0 0 1 5
1532 2 8.2 -10 0 0 0 0 1 5
1533 2 8.4 -10 0 0 0 0 1 5
1582 2 8.2 -9.8 0 0 0 0 1 5
1583 2 8.4 -9.8 0 0 0 0 1 5
1632 2 8.2 -9.6 0 0 0 0 1 5
1633 2 8.4 -9.6 0 0 0 0 1 5
1534 2 8.6 -10 0 0 0 0 1 5
1535 2 8.8 -10 0 0 0 0 1 5
1584 2 8.6 -9.8 0 0 0 0 1 5
1585 2 8.8 -9.8 0 0 0 0 1 5
1634 2 8.6 -9.6 0 0 0 0 1 5
1635 2 8.8 -9.6 0 0 0 0 1 5
1536 2 9 -10 0 0 0 0 1 5
1537 2 9.2 -10 0 0 0 0 1 5
1586 2 9 -9.8 0 0 0 0 1 5
1587 2 9.2 -9.8 0 0 0 0 1 5
1636 2 9 -9.6 0 0 0 0 1 5
1637 2 9.2 -9.6 0 0 0 0 1 5
1538 2 9.4 -10 0 0 0 0 1 5
1539 2 9.6 -10 0 0 0 0 1 5
1588 2 9.4 -9.8 0 0 0 0 1 5
1589 2 9.6 -9.8 0 0 0 0 1 5
1638 2 9.4 -9.6 0 0 0 0 1 5
1639 2 9.6 -9.6 0 0 0 0 1 5
1540 2 9.8 -10 0 0 0 0 1 5
1590 2 9.8 -9.8 0 0 0 0 1 5
1640 2 9.8 -9.6 0 0 0 0 1 5
1541 2 10 -10 0 0 0 0 1 5
1591 2 10 -9.8 0 0 0 0 1 5
1641 2 10 -9.6 0 0 0 0 1 5
1542 2 10.2 -10 0 0 0 0 1 5
1592 2 10.2 -9.8 0 0 0 0 1 5
1642 2 10.2 -9.6 0 0 0 0 1 5
1543 2 10.4 -10 0 0 0 0 1 5
1593 2 10.4 -9.8 0 0 0 0 1 5
1643 2 10.4 -9.6 0 0 0 0 1 5
1544 2 10.6 -10 0 0 0 0 1 5
1594 2 10.6 -9.8 0 0 0 0 1 5
1644 2 10.6 -9.6 0 0 0 0 1 5
1545 2 10.8 -10 0 0 0 0 1 5
1595 2 10.8 -9.8 0 0 0 0 1 5
1645 2 10.8 -9.6 0 0 0 0 1 5
1651 2 2 -9.4 0 0 0 0 1 5
1701 2 2 -9.2 0 0 0 0 1 5
1652 2 2.2 -9.4 0 0 0 0 1 5
1653 2 2.4 -9.4 0 0 0 0 1 5
1702 2 2.2 -9.2 0 0 0 0 1 5
1703 2 2.4 -9.2 0 0 0 0 1 5
1654 2 2.6 -9.4 0 0 0 0 1 5
1655 2 2.8 -9.4 0 0 0 0 1 5
1704 2 2.6 -9.2 0 0 0 0 1 5
1705 2 2.8 -9.2 0 0 0 0 1 5
1656 2 3 -9.4 0 0 0 0 1 5
1657 2 3.2 -9.4 0 0 0 0 1 5
1706 2 3 -9.2 0 0 0 0 1 5
1707 2 3.2 -9.2 0 0 0 0 1 5
1658 2 3.4 -9.4 0 0 0 0 1 5
1659 2 3.6 -9.4 0 0 0 0 1 5
1708 2 3.4 -9.2 0 0 0 0 1 5
1709 2 3.6 -9.2 0 0 0 0 1 5
1660 2 3.8 -9.4 0 0 0 0 1 5
1710 2 3.8 -9.2 0 0 0 0 1 5
1661 2 4 -9.4 0 0 0 0 1 5
1711 2 4 -9.2 0 0 0 0 1 5
1662 2 4.2 -9.4 0 0 0 0 1 5
1712 2 4.2 -9.2 0 0 0 0 1 5
1663 2 4.4 -9.4 0 0 0 0 1 5
1664 2 4.6 -9.4 0 0 0 0 1 5
1713 2 4.4 -9.2 0 0 0 0 1 5
1714 2 4.6 -9.2 0 0 0 0 1 5
1665 2 4.8 -9.4 0 0 0 0 1 5
1666 2 5 -9.4 0 0 0 0 1 5
1715 2 4.8 -9.2 0 0 0 0 1 5
1716 2 5 -9.2 0 0 0 0 1 5
1667 2 5.2 -9.4 0 0 0 0 1 5
1668 2 5.4 -9.4 0 0 0 0 1 5
1717 2 5.2 -9.2 0 0 0 0 1 5
1718 2 5.4 -9.2 0 0 0 0 1 5
1669 2 5.6 -9.4 0 0 0 0 1 5
1670 2 5.8 -9.4 0 0 0 0 1 5
1719 2 5.6 -9.2 0 0 0 0 1 5
1720 2 5.8 -9.2 0 0 0 0 1 5
1671 2 6 -9.4 0 0 0 0 1 5
1672 2 6.2 -9.4 0 0 0 0 1 5
1721 2 6 -9.2 0 0 0 0 1 5
1722 2 6.2 -9.2 0 0 0 0 1 5
1673 2 6.4 -9.4 0 0 0 0 1 5
1674 2 6.6 -9.4 0 0 0 0 1 5
1723 2 6.4 -9.2 0 0 0 0 1 5
1724 2 6.6 -9.2 0 0 0 0 1 5
1675 2 6.8 -9.4 0 0 0 0 1 5
1676 2 7 -9.4 0 0 0 0 1 5
1725 2 6.8 -9.2 0 0 0 0 1 5
1726 2 7 -9.2 0 0 0 0 1 5
1677 2 7.2 -9.4 0 0 0 0 1 5
1727 2 7.2 -9.2 0 0 0 0 1 5
1678 2 7.4 -9.4 0 0 0 0 1 5
1679 2 7.6 -9.4 0 0 0 0 1 5
1728 2 7.4 -9.2 0 0 0 0 1 5
1729 2 7.6 -9.2 0 0 0 0 1 5
1680 2 7.8 -9.4 0 0 0 0 1 5
1681 2 8 -9.4 0 0 0 0 1 5
1730 2 7.8 -9.2 0 0 0 0 1 5
1731 2 8 -9.2 0 0 0 0 1 5
1682 2 8.2 -9.4 0 0 0 0 1 5
1683 2 8.4 -9.4 0 0 0 0 1 5
1732 2 8.2 -9.2 0 0 0 0 1 5
1733 2 8.4 -9.2 0 0 0 0 1 5
1684 2 8.6 -9.4 0 0 0 0 1 5
1685 2 8.8 -9.4 0 0 0 0 1 5
1734 2 8.6 -9.2 0 0 0 0 1 5
1735 2 8.8 -9.2 0 0 0 0 1 5
1686 2 9 -9.4 0 0 0 0 1 5
1687 2 9.2 -9.4 0 0 0 0 1 5
1736 2 9 -9.2 0 0 0 0 1 5
1737 2 9.2 -9.2 0 0 0 0 1 5
1688 2 9.4 -9.4 0 0 0 0 1 5
1689 2 9.6 -9.4 0 0 0 0 1 5
1738 2 9.4 -9.2 0 0 0 0 1 5
1739 2 9.6 -9.2 0 0 0 0 1 5
1690 2 9.8 -9.4 0 0 0 0 1 5
1740 2 9.8 -9.2 0 0 0 0 1 5
1691 2 10 -9.4 0 0 0 0 1 5
1741 2 10 -9.2 0 0 0 0 1 5
1692 2 10.2 -9.4 0 0 0 0 1 5
1742 2 10.2 -9.2 0 0 0 0 1 5
1693 2 10.4 -9.4 0 0 0 0 1 5
1743 2 10.4 -9.2 0 0 0 0 1 5
1694 2 10.6 -9.4 0 0 0 0 1 5
1744 2 10.6 -9.2 0 0 0 0 1 5
1695 2 10.8 -9.4 0 0 0 0 1 5
1745 2 10.8 -9.2 0 0 0 0 1 5
1751 2 2 -9 0 0 0 0 1 5
1801 2 2 -8.8 0 0 0 0 1 5
1752 2 2.2 -9 0 0 0 0 1 5
1753 2 2.4 -9 0 0 0 0 1 5
1802 2 2.2 -8.8 0 0 0 0 1 5
1803 2 2.4 -8.8 0 0 0 0 1 5
1754 2 2.6 -9 0 0 0 0 1 5
1755 2 2.8 -9 0 0 0 0 1 5
1804 2 2.6 -8.8 0 0 0 0 1 5
1805 2 2.8 -8.8 0 0 0 0 1 5
1756 2 3 -9 0 0 0 0 1 5
1757 2 3.2 -9 0 0 0 0 1 5
1806 2 3 -8.8 0 0 0 0 1 5
1807 2 3.2 -8.8 0 0 0 0 1 5
1758 2 3.4 -9 0 0 0 0 1 5
1759 2 3.6 -9 0 0 0 0 1 5
1808 2 3.4 -8.8 0 0 0 0 1 5
1809 2 3.6 -8.8 0 0 0 0 1 5
1760 2 3.8 -9 0 0 0 0 1 5
1810 2 3.8 -8.8 0 0 0 0 1 5
1761 2 4 -9 0 0 0 0 1 5
1811 2 4 -8.8 0 0 0 0 1 5
1762 2 4.2 -9 0 0 0 0 1 5
1812 2 4.2 -8.8 0 0 0 0 1 5
1763 2 4.4 -9 0 0 0 0 1 5
1764 2 4.6 -9 0 0 0 0 1 5
1813 2 4.4 -8.8 0 0 0 0 1 5
1814 2 4.6 -8.8 0 0 0 0 1 5
1765 2 4.8 -9 0 0 0 0 1 5
1766 2 5 -9 0 0 0 0 1 5
1815 2 4.8 -8.8 0 0 0 0 1 5
1816 2 5 -8.8 0 0 0 0 1 5
1767 2 5.2 -9 0 0 0 0 1 5
1768 2 5.4 -9 0 0 0 0 1 5
1817 2 5.2 -8.8 0 0 0 0 1 5
1818 2 5.4 -8.8 0 0 0 0 1 5
1769 2 5.6 -9 0 0 0 0 1 5
1770 2 5.8 -9 0 0 0 0 1 5
1819 2 5.6 -8.8 0 0 0 0 1 5
1820 2 5.8 -8.8 0 0 0 0 1 5
1771 2 6 -9 0 0 0 0 1 5
1772 2 6.2 -9 0 0 0 0 1 5
1821 2 6 -8.8 0 0 0 0 1 5
1822 2 6.2 -8.8 0 0 0 0 1 5
1773 2 6.4 -9 0 0 0 0 1 5
1774 2 6.6 -9 0 0 0 0 1 5
1823 2 6.4 -8.8 0 0 0 0 1 5
1824 2 6.6 -8.8 0 0 0 0 1 5
1775 2 6.8 -9 0 0 0 0 1 5
1776 2 7 -9 0 0 0 0 1 5
1825 2 6.8 -8.8 0 0 0 0 1 5
1826 2 7 -8.8 0 0 0 0 1 5
1777 2 7.2 -9 0 0 0 0 1 5
1827 2 7.2 -8.8 0 0 0 0 1 5
1778 2 7.4 -9 0 0 0 0 1 5
1779 2 7.6 -9 0 0 0 0 1 5
1828 2 7.4 -8.8 0 0 0 0 1 5
1829 2 7.6 -8.8 0 0 0 0 1 5
1780 2 7.8 -9 0 0 0 0 1 5
1781 2 8 -9 0 0 0 0 1 5
1830 2 7.8 -8.8 0 0 0 0 1 5
1831 2 8 -8.8 0 0 0 0 1 5
1782 2 8.2 -9 0 0 0 0 1 5
1783 2 8.4 -9 0 0 0 0 1 5
1832 2 8.2 -8.8 0 0 0 0 1 5
1833 2 8.4 -8.8 0 0 0 0 1 5
1784 2 8.6 -9 0 0 0 0 1 5
1785 2 8.8 -9 0 0 0 0 1 5
1834 2 8.6 -8.8 0 0 0 0 1 5
1835 2 8.8 -8.8 0 0 0 0 1 5
1786 2 9 -9 0 0 0 0 1 5
1787 2 9.2 -9 0 0 0 0 1 5
1836 2 9 -8.8 0 0 0 0 1 5
1837 2 9.2 -8.8 0 0 0 0 1 5
1788 2 9.4 -9 0 0 0 0 1 5
1789 2 9.6 -9 0 0 0 0 1 5
1838 2 9.4 -8.8 0 0 0 0 1 5
1839 2 9.6 -8.8 0 0 0 0 1 5
1790 2 9.8 -9 0 0 0 0 1 5
1840 2 9.8 -8.8 0 0 0 0 1 5
1791 2 10 -9 0 0 0 0 1 5
1841 2 10 -8.8 0 0 0 0 1 5
1792 2 10.2 -9 0 0 0 0 1 5
1842 2 10.2 -8.8 0 0 0 0 1 5
1793 2 10.4 -9 0 0 0 0 1 5
1843 2 10.4 -8.8 0 0 0 0 1 5
1794 2 10.6 -9 0 0 0 0 1 5
1844 2 10.6 -8.8 0 0 0 0 1 5
1795 2 10.8 -9 0 0 0 0 1 5
1845 2 10.8 -8.8 0 0 0 0 1 5
1851 2 2 -8.6 0 0 0 0 1 5
1901 2 2 -8.4 0 0 0 0 1 5
1852 2 2.2 -8.6 0 0 0 0 1 5
1853 2 2.4 -8.6 0 0 0 0 1 5
1902 2 2.2 -8.4 0 0 0 0 1 5
1903 2 2.4 -8.4 0 0 0 0 1 5
1854 2 2.6 -8.6 0 0 0 0 1 5
1855 2 2.8 -8.6 0 0 0 0 1 5
1904 2 2.6 -8.4 0 0 0 0 1 5
1905 2 2.8 -8.4 0 0 0 0 1 5
1856 2 3 -8.6 0 0 0 0 1 5
1857 2 3.2 -8.6 0 0 0 0 1 5
1906 2 3 -8.4 0 0 0 0 1 5
1907 2 3.2 -8.4 0 0 0 0 1 5
1858 2 3.4 -8.6 0 0 0 0 1 5
1859 2 3.6 -8.6 0 0 0 0 1 5
1908 2 3.4 -8.4 0 0 0 0 1 5
1909 2 3.6 -8.4 0 0 0 0 1 5
1860 2 3.8 -8.6 0 0 0 0 1 5
1910 2 3.8 -8.4 0 0 0 0 1 5
1861 2 4 -8.6 0 0 0 0 1 5
1911 2 4 -8.4 0 0 0 0 1 5
1862 2 4.2 -8.6 0 0 0 0 1 5
1912 2 4.2 -8.4 0 0 0 0 1 5
1863 2 4.4 -8.6 0 0 0 0 1 5
1864 2 4.6 -8.6 0 0 0 0 1 5
1913 2 4.4 -8.4 0 0 0 0 1 5
1914 2 4.6 -8.4 0 0 0 0 1 5
1865 2 4.8 -8.6 0 0 0 0 1 5
1866 2 5 -8.6 0 0 0 0 1 5
1915 2 4.8 -8.4 0 0 0 0 1 5
1916 2 5 -8.4 0 0 0 0 1 5
1867 2 5.2 -8.6 0 0 0 0 1 5
1868 2 5.4 -8.6 0 0 0 0 1 5
1917 2 5.2 -8.4 0 0 0 0 1 5
1918 2 5.4 -8.4 0 0 0 0 1 5
1869 2 5.6 -8.6 0 0 0 0 1 5
1870 2 5.8 -8.6 0 0 0 0 1 5
1919 2 5.6 -8.4 0 0 0 0 1 5
1920 2 5.8 -8.4 0 0 0 0 1 5
1871 2 6 -8.6 0 0 0 0 1 5
1872 2 6.2 -8.6 0 0 0 0 1 5
1921 2 6 -8.4 0 0 0 0 1 5
1922 2 6.2 -8.4 0 0 0 0 1 5
1873 2 6.4 -8.6 0 0 0 0 1 5
1874 2 6.6 -8.6 0 0 0 0 1 5
1923 2 6.4 -8.4 0 0 0 0 1 5
1924 2 6.6 -8.4 0 0 0 0 1 5
1875 2 6.8 -8.6 0 0 0 0 1 5
1876 2 7 -8.6 0 0 0 0 1 5
1925 2 6.8 -8.4 0 0 0 0 1 5
1926 2 7 -8.4 0 0 0 0 1 5
1877 2 7.2 -8.6 0 0 0 0 1 5
1927 2 7.2 -8.4 0 0 0 0 1 5
1878 2 7.4 -8.6 0 0 0 0 1 5
1879 2 7.6 -8.6 0 0 0 0 1 5
1928 2 7.4 -8.4 0 0 0 0 1 5
1929 2 7.6 -8.4 0 0 0 0 1 5
1880 2 7.8 -8.6 0 0 0 0 1 5
1881 2 8 -8.6 0 0 0 0 1 5
1930 2 7.8 -8.4 0 0 0 0 1 5
1931 2 8 -8.4 0 0 0 0 1 5
1882 2 8.2 -8.6 0 0 0 0 1 5
1883 2 8.4 -8.6 0 0 0 0 1 5
1932 2 8.2 -8.4 0 0 0 0 1 5
1933 2 8.4 -8.4 0 0 0 0 1 5
1884 2 8.6 -8.6 0 0 0 0 1 5
1885 2 8.8 -8.6 0 0 0 0 1 5
1934 2 8.6 -8.4 0 0 0 0 1 5
1935 2 8.8 -8.4 0 0 0 0 1 5
1886 2 9 -8.6 0 0 0 0 1 5
1887 2 9.2 -8.6 0 0 0 0 1 5
1936 2 9 -8.4 0 0 0 0 1 5
1937 2 9.2 -8.4 0 0 0 0 1 5
1888 2 9.4 -8.6 0 0 0 0 1 5
1889 2 9.6 -8.6 0 0 0 0 1 5
1938 2 9.4 -8.4 0 0 0 0 1 5
1939 2 9.6 -8.4 0 0 0 0 1 5
1890 2 9.8 -8.6 0 0 0 0 1 5
1940 2 9.8 -8.4 0 0 0 0 1 5
1891 2 10 -8.6 0 0 0 0 1 5
1941 2 10 -8.4 0 0 0 0 1 5
1892 2 10.2 -8.6 0 0 0 0 1 5
1942 2 10.2 -8.4 0 0 0 0 1 5
1893 2 10.4 -8.6 0 0 0 0 1 5
1943 2 10.4 -8.4 0 0 0 0 1 5
1894 2 10.6 -8.6 0 0 0 0 1 5
1944 2 10.6 -8.4 0 0 0 0 1 5
1895 2 10.8 -8.6 0 0 0 0 1 5
1945 2 10.8 -8.4 0 0 0 0 1 5
1951 2 2 -8.2 0 0 0 0 1 5
2001 2 2 -8 0 0 0 0 1 5
1952 2 2.2 -8.2 0 0 0 0 1 5
1953 2 2.4 -8.2 0 0 0 0 1 5
2002 2 2.2 -8 0 0 0 0 1 5
2003 2 2.4 -8 0 0 0 0 1 5
1954 2 2.6 -8.2 0 0 0 0 1 5
1955 2 2.8 -8.2 0 0 0 0 1 5
2004 2 2.6 -8 0 0 0 0 1 5
2005 2 2.8 -8 0 0 0 0 1 5
1956 2 3 -8.2 0 0 0 0 1 5
1957 2 3.2 -8.2 0 0 0 0 1 5
2006 2 3 -8 0 0 0 0 1 5
2007 2 3.2 -8 0 0 0 0 1 5
1958 2 3.4 -8.2 0 0 0 0 1 5
1959 2 3.6 -8.2 0 0 0 0 1 5
2008 2 3.4 -8 0 0 0 0 1 5
2009 2 3.6 -8 0 0 0 0 1 5
1960 2 3.8 -8.2 0 0 0 0 1 5
2010 2 3.8 -8 0 0 0 0 1 5
1961 2 4 -8.2 0 0 0 0 1 5
2011 2 4 -8 0 0 0 0 1 5
1962 2 4.2 -8.2 0 0 0 0 1 5
2012 2 4.2 -8 0 0 0 0 1 5
1963 2 4.4 -8.2 0 0 0 0 1 5
1964 2 4.6 -8.2 0 0 0 0 1 5
2013 2 4.4 -8 0 0 0 0 1 5
2014 2 4.6 -8 0 0 0 0 1 5
1965 2 4.8 -8.2 0 0 0 0 1 5
1966 2 5 -8.2 0 0 0 0 1 5
2015 2 4.8 -8 0 0 0 0 1 5
2016 2 5 -8 0 0 0 0 1 5
1967 2 5.2 -8.2 0 0 0 0 1 5
1968 2 5.4 -8.2 0 0 0 0 1 5
2017 2 5.2 -8 0 0 0 0 1 5
2018 2 5.4 -8 0 0 0 0 1 5
1969 2 5.6 -8.2 0 0 0 0 1 5
1970 2 5.8 -8.2 0 0 0 0 1 5
2019 2 5.6 -8 0 0 0 0 1 5
2020 2 5.8 -8 0 0 0 0 1 5
1971 2 6 -8.2 0 0 0 0 1 5
1972 2 6.2 -8.2 0 0 0 0 1 5
2021 2 6 -8 0 0 0 0 1 5
2022 2 6.2 -8 0 0 0 0 1 5
1973 2 6.4 -8.2 0 0 0 0 1 5
1974 2 6.6 -8.2 0 0 0 0 1 5
2023 2 6.4 -8 0 0 0 0 1 5
2024 2 6.6 -8 0 0 0 0 1 5
1975 2 6.8 -8.2 0 0 0 0 1 5
1976 2 7 -8.2 0 0 0 0 1 5
2025 2 6.8 -8 0 0 0 0 1 5
2026 2 7 -8 0 0 0 0 1 5
1977 2 7.2 -8.2 0 0 0 0 1 5
2027 2 7.2 -8 0 0 0 0 1 5
1978 2 7.4 -8.2 0 0 0 0 1 5
1979 2 7.6 -8.2 0 0 0 0 1 5
2028 2 7.4 -8 0 0 0 0 1 5
2029 2 7.6 -8 0 0 0 0 1 5
1980 2 7.8 -8.2 0 0 0 0 1 5
1981 2 8 -8.2 0 0 0 0 1 5
2030 2 7.8 -8 0 0 0 0 1 5
2031 2 8 -8 0 0 0 0 1 5
1982 2 8.2 -8.2 0 0 0 0 1 5
1983 2 8.4 -8.2 0 0 0 0 1 5
2032 2 8.2 -8 0 0 0 0 1 5
2033 2 8.4 -8 0 0 0 0 1 5
1984 2 8.6 -8.2 0 0 0 0 1 5
1985 2 8.8 -8.2 0 0 0 0 1 5
2034 2 8.6 -8 0 0 0 0 1 5
2035 2 8.8 -8 0 0 0 0 1 5
1986 2 9 -8.2 0 0 0 0 1 5
1987 2 9.2 -8.2 0 0 0 0 1 5
2036 2 9 -8 0 0 0 0 1 5
2037 2 9.2 -8 0 0 0 0 1 5
1988 2 9.4 -8.2 0 0 0 0 1 5
1989 2 9.6 -8.2 0 0 0 0 1 5
2038 2 9.4 -8 0 0 0 0 1 5
2039 2 9.6 -8 0 0 0 0 1 5
1990 2 9.8 -8.2 0 0 0 0 1 5
2040 2 9.8 -8 0 0 0 0 1 5
1991 2 10 -8.2 0 0 0 0 1 5
2041 2 10 -8 0 0 0 0 1 5
1992 2 10.2 -8.2 0 0 0 0 1 5
2042 2 10.2 -8 0 0 0 0 1 5
1993 2 10.4 -8.2 0 0 0 0 1 5
2043 2 10.4 -8 0 0 0 0 1 5
1994 2 10.6 -8.2 0 0 0 0 1 5
2044 2 10.6 -8 0 0 0 0 1 5
1995 2 10.8 -8.2 0 0 0 0 1 5
2045 2 10.8 -8 0 0 0 0 1 5
2051 2 2 -7.8 0 0 0 0 1 5
2101 2 2 -7.6 0 0 0 0 1 5
2052 2 2.2 -7.8 0 0 0 0 1 5
2053 2 2.4 -7.8 0 0 0 0 1 5
2102 2 2.2 -7.6 0 0 0 0 1 5
2103 2 2.4 -7.6 0 0 0 0 1 5
2054 2 2.6 -7.8 0 0 0 0 1 5
2055 2 2.8 -7.8 0 0 0 0 1 5
2104 2 2.6 -7.6 0 0 0 0 1 5
2105 2 2.8 -7.6 0 0 0 0 1 5
2056 2 3 -7.8 0 0 0 0 1 5
2057 2 3.2 -7.8 0 0 0 0 1 5
2106 2 3 -7.6 0 0 0 0 1 5
2107 2 3.2 -7.6 0 0 0 0 1 5
2058 2 3.4 -7.8 0 0 0 0 1 5
2059 2 3.6 -7.8 0 0 0 0 1 5
2108 2 3.4 -7.6 0 0 0 0 1 5
2109 2 3.6 -7.6 0 0 0 0 1 5
2060 2 3.8 -7.8 0 0 0 0 1 5
2110 2 3.8 -7.6 0 0 0 0 1 5
2061 2 4 -7.8 0 0 0 0 1 5
2111 2 4 -7.6 0 0 0 0 1 5
2062 2 4.2 -7.8 0 0 0 0 1 5
2112 2 4.2 -7.6 0 0 0 0 1 5
2063 2 4.4 -7.8 0 0 0 0 1 5
2064 2 4.6 -7.8 0 0 0 0 1 5
2113 2 4.4 -7.6 0 0 0 0 1 5
2114 2 4.6 -7.6 0 0 0 0 1 5
2065 2 4.8 -7.8 0 0 0 0 1 5
2066 2 5 -7.8 0 0 0 0 1 5
2115 2 4.8 -7.6 0 0 0 0 1 5
2116 2 5 -7.6 0 0 0 0 1 5
2067 2 5.2 -7.8 0 0 0 0 1 5
2068 2 5.4 -7.8 0 0 0 0 1 5
2117 2 5.2 -7.6 0 0 0 0 1 5
2118 2 5.4 -7.6 0 0 0 0 1 5
2069 2 5.6 -7.8 0 0 0 0 1 5
2070 2 5.8 -7.8 0 0 0 0 1 5
2119 2 5.6 -7.6 0 0 0 0 1 5
2120 2 5.8 -7.6 0 0 0 0 1 5
2071 2 6 -7.8 0 0 0 0 1 5
2072 2 6.2 -7.8 0 0 0 0 1 5
2121 2 6 -7.6 0 0 0 0 1 5
2122 2 6.2 -7.6 0 0 0 0 1 5
2073 2 6.4 -7.8 0 0 0 0 1 5
2074 2 6.6 -7.8 0 0 0 0 1 5
2123 2 6.4 -7.6 0 0 0 0 1 5
2124 2 6.6 -7.6 0 0 0 0 1 5
2075 2 6.8 -7.8 0 0 0 0 1 5
2076 2 7 -7.8 0 0 0 0 1 5
2125 2 6.8 -7.6 0 0 0 0 1 5
2126 2 7 -7.6 0 0 0 0 1 5
2077 2 7.2 -7.8 0 0 0 0 1 5
2127 2 7.2 -7.6 0 0 0 0 1 5
2078 2 7.4 -7.8 0 0 0 0 1 5
2079 2 7.6 -7.8 0 0 0 0 1 5
2128 2 7.4 -7.6 0 0 0 0 1 5
2129 2 7.6 -7.6 0 0 0 0 1 5
2080 2 7.8 -7.8 0 0 0 0 1 5
2081 2 8 -7.8 0 0 0 0 1 5
2130 2 7.8 -7.6 0 0 0 0 1 5
2131 2 8 -7.6 0 0 0 0 1 5
2082 2 8.2 -7.8 0 0 0 0 1 5
2083 2 8.4 -7.8 0 0 0 0 1 5
2132 2 8.2 -7.6 0 0 0 0 1 5
2133 2 8.4 -7.6 0 0 0 0 1 5
2084 2 8.6 -7.8 0 0 0 0 1 5
2085 2 8.8 -7.8 0 0 0 0 1 5
2134 2 8.6 -7.6 0 0 0 0 1 5
2135 2 8.8 -7.6 0 0 0 0 1 5
2086 2 9 -7.8 0 0 0 0 1 5
2087 2 9.2 -7.8 0 0 0 0 1 5
2136 2 9 -7.6 0 0 0 0 1 5
2137 2 9.2 -7.6 0 0 0 0 1 5
2088 2 9.4 -7.8 0 0 0 0 1 5
2089 2 9.6 -7.8 0 0 0 0 1 5
2138 2 9.4 -7.6 0 0 0 0 1 5
2139 2 9.6 -7.6 0 0 0 0 1 5
2090 2 9.8 -7.8 0 0 0 0 1 5
2140 2 9.8 -7.6 0 0 0 0 1 5
2091 2 10 -7.8 0 0 0 0 1 5
2141 2 10 -7.6 0 0 0 0 1 5
2092 2 10.2 -7.8 0 0 0 0 1 5
2142 2 10.2 -7.6 0 0 0 0 1 5
2093 2 10.4 -7.8 0 0 0 0 1 5
2143 2 10.4 -7.6 0 0 0 0 1 5
2094 2 10.6 -7.8 0 0 0 0 1 5
2144 2 10.6 -7.6 0 0 0 0 1 5
2095 2 10.8 -7.8 0 0 0 0 1 5
2145 2 10.8 -7.6 0 0 0 0 1 5
2151 2 2 -7.4 0 0 0 0 1.00908 5
2201 2 2 -7.2 0 0 0 0 1.0098 5
2152 2 2.2 -7.4 0 0 0 0 1.00065 5
2153 2 2.4 -7.4 0 0 0 0 0.997777 5
2202 2 2.2 -7.2 0 0 0 0 1.00292 5
2203 2 2.4 -7.2 0 0 0 0 0.999767 5
2154 2 2.6 -7.4 0 0 0 0 1.00777 5
2155 2 2.8 -7.4 0 0 0 0 0.998017 5
2204 2 2.6 -7.2 0 0 0 0 1.00165 5
2205 2 2.8 -7.2 0 0 0 0 1.00068 5
2156 2 3 -7.4 0 0 0 0 0.999396 5
2157 2 3.2 -7.4 0 0 0 0 0.99903 5
2206 2 3 -7.2 0 0 0 0 1.00009 5
2207 2 3.2 -7.2 0 0 0 0 0.999243 5
2158 2 3.4 -7.4 0 0 0 0 0.999962 5
2159 2 3.6 -7.4 0 0 0 0 0.999793 5
2208 2 3.4 -7.2 0 0 0 0 0.99995 5
2209 2 3.6 -7.2 0 0 0 0 1.00104 5
2160 2 3.8 -7.4 0 0 0 0 1.02294 5
2210 2 3.8 -7.2 0 0 0 0 1.01124 5
2161 2 4 -7.4 0 0 0 0 1.02771 5
2211 2 4 -7.2 0 0 0 0 1.02263 5
2162 2 4.2 -7.4 0 0 0 0 1.03248 5
2212 2 4.2 -7.2 0 0 0 0 1.03046 5
2163 2 4.4 -7.4 0 0 0 0 1.03639 5
2164 2 4.6 -7.4 0 0 0 0 1.03039 5
2213 2 4.4 -7.2 0 0 0 0 1.03548 5
2214 2 4.6 -7.2 0 0 0 0 1.03159 5
2165 2 4.8 -7.4 0 0 0 0 1.02977 5
2166 2 5 -7.4 0 0 0 0 1.03007 5
2215 2 4.8 -7.2 0 0 0 0 1.03074 5
2216 2 5 -7.2 0 0 0 0 1.03079 5
2167 2 5.2 -7.4 0 0 0 0 1.03 5
2168 2 5.4 -7.4 0 0 0 0 1.0299 5
2217 2 5.2 -7.2 0 0 0 0 1.0308 5
2218 2 5.4 -7.2 0 0 0 0 1.03068 5
2169 2 5.6 -7.4 0 0 0 0 1.02972 5
2170 2 5.8 -7.4 0 0 0 0 1.02975 5
2219 2 5.6 -7.2 0 0 0 0 1.03049 5
2220 2 5.8 -7.2 0 0 0 0 1.03042 5
2171 2 6 -7.4 0 0 0 0 1.02971 5
2172 2 6.2 -7.4 0 0 0 0 1.02987 5
2221 2 6 -7.2 0 0 0 0 1.03036 5
2222 2 6.2 -7.2 0 0 0 0 1.03031 5
2173 2 6.4 -7.4 0 0 0 0 1.02931 5
2174 2 6.6 -7.4 0 0 0 0 1.02906 5
2223 2 6.4 -7.2 0 0 0 0 1.03011 5
2224 2 6.6 -7.2 0 0 0 0 1.02991 5
2175 2 6.8 -7.4 0 0 0 0 1.029 5
2176 2 7 -7.4 0 0 0 0 1.02924 5
2225 2 6.8 -7.2 0 0 0 0 1.02984 5
2226 2 7 -7.2 0 0 0 0 1.02989 5
2177 2 7.2 -7.4 0 0 0 0 1.02933 5
2227 2 7.2 -7.2 0 0 0 0 1.02984 5
2178 2 7.4 -7.4 0 0 0 0 1.02877 5
2179 2 7.6 -7.4 0 0 0 0 1.02874 5
2228 2 7.4 -7.2 0 0 0 0 1.02959 5
2229 2 7.6 -7.2 0 0 0 0 1.02949 5
2180 2 7.8 -7.4 0 0 0 0 1.02877 5
2181 2 8 -7.4 0 0 0 0 1.02871 5
2230 2 7.8 -7.2 0 0 0 0 1.02947 5
2231 2 8 -7.2 0 0 0 0 1.02937 5
2182 2 8.2 -7.4 0 0 0 0 1.0284 5
2183 2 8.4 -7.4 0 0 0 0 1.0284 5
2232 2 8.2 -7.2 0 0 0 0 1.02917 5
2233 2 8.4 -7.2 0 0 0 0 1.02914 5
2184 2 8.6 -7.4 0 0 0 0 1.02866 5
2185 2 8.8 -7.4 0 0 0 0 1.02859 5
2234 2 8.6 -7.2 0 0 0 0 1.02913 5
2235 2 8.8 -7.2 0 0 0 0 1.02906 5
2186 2 9 -7.4 0 0 0 0 1.02846 5
2187 2 9.2 -7.4 0 0 0 0 1.0284 5
2236 2 9 -7.2 0 0 0 0 1.02894 5
2237 2 9.2 -7.2 0 0 0 0 1.02885 5
2188 2 9.4 -7.4 0 0 0 0 1.02807 5
2189 2 9.6 -7.4 0 0 0 0 1.02795 5
2238 2 9.4 -7.2 0 0 0 0 1.02872 5
2239 2 9.6 -7.2 0 0 0 0 1.02854 5
2190 2 9.8 -7.4 0 0 0 0 1.02765 5
2240 2 9.8 -7.2 0 0 0 0 1.02838 5
2191 2 10 -7.4 0 0 0 0 1.02763 5
2241 2 10 -7.2 0 0 0 0 1.02836 5
2192 2 10.2 -7.4 0 0 0 0 1.02789 5
2242 2 10.2 -7.2 0 0 0 0 1.02839 5
2193 2 10.4 -7.4 0 0 0 0 1.02797 5
2243 2 10.4 -7.2 0 0 0 0 1.02836 5
2194 2 10.6 -7.4 0 0 0 0 1.02793 5
2244 2 10.6 -7.2 0 0 0 0 1.02832 5
2195 2 10.8 -7.4 0 0 0 0 1.02793 5
2245 2 10.8 -7.2 0 0 0 0 1.02829 5
16346 1 2.16607 -6.73426 0.02 0 -0.00329082 -0.00022674 1 2
16347 1 2.36006 -6.74554 0.02 0 -0.00257269 -0.000295684 1 2
2251 2 2 -7 0 0 0 0 1.00973 5
16348 1 2.55411 -6.73088 0.02 0 -0.0023932 -0.000359096 1 2
16349 1 2.75695 -6.7611 0.02 0 -0.00301606 -0.000394755 1 2
2252 2 2.2 -7 0 0 0 0 1.00317 5
2253 2 2.4 -7 0 0 0 0 1.00014 5
16350 1 2.97505 -6.75596 0.02 0 -0.00289509 -0.000474512 1 2
16351 1 3.1841 -6.75919 0.02 0 -0.00310942 -0.000411223 1 2
2254 2 2.6 -7 0 0 0 0 1.00069 5
2255 2 2.8 -7 0 0 0 0 1.00049 5
16352 1 3.38848 -6.74368 0.02 0 -0.00260719 -0.000313689 1 2
16353 1 3.59725 -6.75716 0.02 0 -0.00320706 -0.0001464 1 2
2256 2 3 -7 0 0 0 0 1.00013 5
2257 2 3.2 -7 0 0 0 0 0.999651 5
15661 1 3.99966 -6.76436 0.02 0 -0.0129773 0.00091796 1.00655 2
16354 1 3.80482 -6.74173 0.02 0 -0.00629414 0.000136087 1 2
2258 2 3.4 -7 0 0 0 0 1.00007 5
2259 2 3.6 -7 0 0 0 0 1.00162 5
2260 2 3.8 -7 0 0 0 0 1.00886 5
15662 1 4.0978 -6.66798 0.00790106 0.00207316 0.000717497 0.000289419 1.03166 0
15663 1 4.05554 -6.81849 0.00327217 -0.000663925 0.000650285 -0.00010601 1.03566 0
15664 1 4.27101 -6.60882 0.00714512 0.00160395 0.000151476 6.86727e-05 1.03746 0
15665 1 4.24926 -6.78562 0.00302462 -0.000585206 0.000269075 3.33765e-05 1.04111 0
2261 2 4 -7 0 0 0 0 1.02007 5
2262 2 4.2 -7 0 0 0 0 1.03 5
15666 1 4.40314 -6.70794 0.00557433 0.000289236 3.57159e-05 2.02562e-05 1.03502 0
15669 1 4.54463 -6.71513 0.00554109 0.000157976 -1.74383e-05 1.83422e-06 1.03232 0
14985 1 4.66472 -6.77981 0.00374558 -0.000224336 -1.37037e-05 -1.60893e-06 1.03255 0
2263 2 4.4 -7 0 0 0 0 1.03531 5
2264 2 4.6 -7 0 0 0 0 1.03242 5
14986 1 4.80567 -6.70404 0.00484057 0.000207545 -1.22281e-05 1.26655e-06 1.03154 0
14994 1 4.93491 -6.73214 0.00370746 -7.70692e-05 -9.94707e-06 6.70348e-07 1.0319 0
14991 1 5.15086 -6.61787 0.00542765 0.000275674 -1.11769e-05 5.45999e-07 1.0312 0
14300 1 5.07564 -6.78042 0.00256971 -0.000387723 -7.10984e-06 -8.29377e-08 1.03241 0
2265 2 4.8 -7 0 0 0 0 1.03129 5
2266 2 5 -7 0 0 0 0 1.03135 5
14304 1 5.30368 -6.64203 0.0045714 0.00011569 -8.41616e-06 4.30268e-07 1.03109 0
14308 1 5.28423 -6.80161 0.0021262 -0.000489261 -4.80291e-06 -6.61566e-07 1.03232 0
13616 1 5.47434 -6.7324 0.00278291 -0.000182308 -4.7117e-06 -4.72872e-08 1.03136 0
2267 2 5.2 -7 0 0 0 0 1.03144 5
2268 2 5.4 -7 0 0 0 0 1.03125 5
13619 1 5.69429 -6.6348 0.00398138 2.25629e-05 -4.48908e-06 2.93409e-07 1.03071 0
12903 1 5.63208 -6.79176 0.00188869 -0.000479235 -2.95447e-06 -7.03491e-07 1.03186 0
12907 1 5.81626 -6.7487 0.00223448 -0.000326517 -2.42143e-06 -2.56346e-07 1.03139 0
2269 2 5.6 -7 0 0 0 0 1.03104 5
2270 2 5.8 -7 0 0 0 0 1.03094 5
13615 1 5.94489 -6.61152 0.00396715 8.24989e-06 -2.49171e-06 2.52458e-08 1.03054 0
12210 1 5.98614 -6.77349 0.00183208 -0.000450904 -1.38052e-06 -8.00929e-07 1.03158 0
11540 1 6.1517 -6.7426 0.00208534 -0.000351553 -5.45141e-07 -6.29617e-07 1.03128 0
11552 1 6.30345 -6.74062 0.00198657 -0.000368463 2.68555e-07 -7.62153e-07 1.03118 0
2271 2 6 -7 0 0 0 0 1.03084 5
2272 2 6.2 -7 0 0 0 0 1.03073 5
10855 1 6.46001 -6.76199 0.00167437 -0.000435585 8.8914e-07 -1.23791e-06 1.03117 0
12911 1 6.5857 -6.62371 0.00314225 -0.000136517 2.65255e-06 -8.53691e-07 1.03023 0
10858 1 6.74327 -6.65449 0.00265309 -0.000178129 3.08677e-06 -9.74455e-07 1.03028 0
10169 1 6.65003 -6.82003 0.00128118 -0.000647239 1.29463e-06 -1.98055e-06 1.03133 0
2273 2 6.4 -7 0 0 0 0 1.03062 5
2274 2 6.6 -7 0 0 0 0 1.03055 5
10172 1 6.88107 -6.68912 0.00215783 -0.000206718 3.075e-06 -1.03385e-06 1.03033 0
3109 1 6.99363 -6.78581 0.00129152 -0.00050768 2.19681e-06 -1.7648e-06 1.03109 0
3113 1 7.17328 -6.76034 0.00143833 -0.000417199 2.9996e-06 -1.5344e-06 1.03085 0
2275 2 6.8 -7 0 0 0 0 1.03044 5
2276 2 7 -7 0 0 0 0 1.03039 5
11546 1 7.0897 -6.6065 0.00293268 -0.000127456 5.30858e-06 -1.17382e-06 1.02998 0
3115 1 7.35098 -6.73589 0.00156496 -0.000336395 3.73599e-06 -1.56141e-06 1.03045 0
3119 1 7.506 -6.8197 0.00104158 -0.00061672 2.79095e-06 -2.3216e-06 1.03084 0
2277 2 7.2 -7 0 0 0 0 1.03029 5
2278 2 7.4 -7 0 0 0 0 1.03016 5
2279 2 7.6 -7 0 0 0 0 1.03009 5
10856 1 7.57229 -6.62123 0.00251825 -0.000166096 6.30263e-06 -1.61802e-06 1.02974 0
3116 1 7.70836 -6.69099 0.0017843 -0.000217322 4.89062e-06 -1.61831e-06 1.02993 0
3117 1 7.96521 -6.6482 0.0020664 -0.000185314 6.18448e-06 -1.74711e-06 1.02963 0
3121 1 7.80994 -6.81388 0.000986617 -0.000575979 2.84547e-06 -2.37417e-06 1.0307 0
3123 1 8.04758 -6.76458 0.00117432 -0.00041543 3.82462e-06 -2.14734e-06 1.0303 0
2280 2 7.8 -7 0 0 0 0 1.03002 5
2281 2 8 -7 0 0 0 0 1.02988 5
3118 1 8.2245 -6.64683 0.00198461 -0.000185224 6.58238e-06 -2.08014e-06 1.02944 0
3108 1 8.40774 -6.63458 0.0020125 -0.00017246 7.16107e-06 -2.25554e-06 1.02931 0
3125 1 8.24914 -6.82388 0.000893553 -0.000613043 3.10345e-06 -2.6559e-06 1.03038 0
2282 2 8.2 -7 0 0 0 0 1.02975 5
2283 2 8.4 -7 0 0 0 0 1.02967 5
3126 1 8.49676 -6.77403 0.00105818 -0.000434528 4.03145e-06 -2.27641e-06 1.03015 0
3120 1 8.61248 -6.60697 0.00217004 -0.00015279 8.36856e-06 -2.55645e-06 1.02916 0
3127 1 8.6865 -6.7785 0.000995993 -0.000459348 4.20678e-06 -2.28245e-06 1.03011 0
3128 1 8.87488 -6.75497 0.00110296 -0.000383387 5.18943e-06 -2.33667e-06 1.02983 0
2284 2 8.6 -7 0 0 0 0 1.02957 5
2285 2 8.8 -7 0 0 0 0 1.02946 5
3122 1 8.79296 -6.59786 0.0021846 -0.000145506 9.13509e-06 -2.91327e-06 1.02905 0
3129 1 9.05229 -6.77381 0.000978437 -0.000449752 5.06284e-06 -2.52465e-06 1.0299 0
3130 1 9.23693 -6.76591 0.000997287 -0.000430733 5.67045e-06 -2.83149e-06 1.02977 0
2286 2 9 -7 0 0 0 0 1.02935 5
2287 2 9.2 -7 0 0 0 0 1.02925 5
3131 1 9.42021 -6.73173 0.00114249 -0.000315564 7.18041e-06 -3.37431e-06 1.02936 0
3132 1 9.5824 -6.79823 0.000819617 -0.000522097 6.10926e-06 -3.93959e-06 1.02971 0
2288 2 9.4 -7 0 0 0 0 1.02914 5
2289 2 9.6 -7 0 0 0 0 1.02904 5
3133 1 9.78996 -6.68634 0.00126962 -0.000193522 9.12116e-06 -4.57639e-06 1.02878 0
3134 1 9.88157 -6.82984 0.000675799 -0.000606681 5.57769e-06 -4.64048e-06 1.02954 0
3135 1 10.0724 -6.73083 0.000961884 -0.000285271 7.58364e-06 -4.2966e-06 1.02904 0
2290 2 9.8 -7 0 0 0 0 1.02895 5
2291 2 10 -7 0 0 0 0 1.02887 5
3136 1 10.2438 -6.7643 0.000785769 -0.000391866 6.99522e-06 -3.78156e-06 1.02927 0
3137 1 10.4258 -6.76213 0.000773447 -0.00036848 6.99291e-06 -3.61319e-06 1.02919 0
2292 2 10.2 -7 0 0 0 0 1.02878 5
2293 2 10.4 -7 0 0 0 0 1.02873 5
3138 1 10.611 -6.76618 0.000734552 -0.000366374 6.59256e-06 -3.49719e-06 1.02917 0
3139 1 10.8011 -6.76301 0.000715435 -0.000342945 6.17885e-06 -3.39277e-06 1.0291 0
3140 1 10.9895 -6.76879 0.000666761 -0.000352024 5.5465e-06 -3.16606e-06 1.02912 0
2294 2 10.6 -7 0 0 0 0 1.02869 5
2295 2 10.8 -7 0 0 0 0 1.02865 5
16355 1 2.13085 -6.55533 0.02 0 -0.000696669 -0.00011315 1 2
16356 1 2.33706 -6.55766 0.02 0 0.000465075 0.000522814 1 2
16357 1 2.12079 -6.36917 0.02 0 -4.31892e-07 -1.38011e-07 1 2
16358 1 2.32143 -6.36811 0.02 0 0.00015694 0.000170559 1 2
16359 1 2.16601 -6.17777 0.02 0 5.26871e-06 6.19916e-06 1 2
16360 1 2.36415 -6.17528 0.02 0 8.38739e-06 1.43197e-05 1 2
16361 1 2.54576 -6.55239 0.02 0 0.000254071 0.000416433 1 2
16362 1 2.7546 -6.57675 0.02 0 0.000127635 0.000358466 1 2
16363 1 2.52241 -6.37182 0.02 0 0.00011242 0.000140798 1 2
16364 1 2.7338 -6.39378 0.02 0 0.000122947 0.000162965 1 2
16365 1 2.56802 -6.19145 0.02 0 6.21146e-06 1.27203e-05 1 2
16366 1 2.76781 -6.20716 0.02 0 8.02785e-06 1.57472e-05 1 2
16367 1 3.16048 -6.58171 0.02 0 7.83616e-05 0.000396438 1 2
16368 1 2.95377 -6.57331 0.02 0 0.000101797 0.000383111 1 2
16369 1 2.95287 -6.39507 0.02 0 0.000117929 0.000140826 1 2
16370 1 3.18282 -6.41182 0.02 0 0.000128991 0.000173562 1 2
16371 1 2.96595 -6.21147 0.02 0 9.21055e-06 1.79674e-05 1 2
16372 1 3.16384 -6.23254 0.02 0 1.3854e-05 2.31256e-05 1 2
16373 1 3.38749 -6.5713 0.02 0 0.000105424 0.000345493 1 2
16374 1 3.60904 -6.57502 0.02 0 -0.000175092 0.000447268 1 2
16375 1 3.39631 -6.3972 0.02 0 0.000108807 0.000145216 1 2
16376 1 3.5935 -6.38879 0.02 0 -0.000114793 0.000100536 1 2
16377 1 3.36547 -6.21344 0.02 0 9.91128e-06 1.72924e-05 1 2
16378 1 3.56485 -6.19278 0.02 0 -0.000170863 1.38876e-05 1 2
15694 1 3.99956 -6.56992 0.02 0 -0.00794336 0.000794754 1.00359 2
16379 1 3.81224 -6.55391 0.02 0 -0.00268383 0.000577898 1 2
16380 1 3.78575 -6.3623 0.02 0 -0.00180247 0.000168173 1 2
16381 1 3.9876 -6.37376 0.02 0 -0.0062011 0.00101487 1 2
16382 1 3.95526 -6.17725 0.02 0 -0.00486843 0.000281061 1 2
15695 1 4.00017 -6.18499 0.0185475 0.000104684 -0.00581017 0.000418735 1.02118 0
15696 1 4.08944 -6.47502 0.0101324 0.00164463 0.000283977 5.57525e-05 1.03217 0
15698 1 4.13376 -6.54289 0.00932989 0.00231746 0.000393461 0.00012835 1.03476 0
15699 1 4.00001 -6.29243 0.0185267 0.000184132 -0.0058932 0.000736528 1.02288 0
15700 1 4.31623 -6.30774 0.0109847 0.00224884 4.99997e-05 6.57179e-08 1.03723 0
15701 1 4.15798 -6.12018 0.0108494 0.00212902 9.45482e-05 0.000162963 1.03538 0
15702 1 4.30527 -6.15062 0.0114177 0.00260635 2.37916e-06 5.91055e-05 1.03656 0
15697 1 4.34175 -6.46576 0.00978752 0.00182666 1.23382e-05 -4.8798e-06 1.03668 0
15705 1 4.18053 -6.35678 0.0104608 0.00182385 0.000232812 -6.95528e-05 1.03778 0
15706 1 4.46585 -6.23029 0.0132334 0.00236013 -4.49015e-05 1.80938e-05 1.03272 0
15667 1 4.61636 -6.51863 0.00971387 0.00116741 -2.63696e-05 3.7931e-06 1.03146 0
15704 1 4.46814 -6.55794 0.00929622 0.00115206 -2.10383e-05 7.65126e-06 1.03325 0
15703 1 4.50728 -6.38763 0.0119148 0.00179591 -3.68254e-05 1.04674e-05 1.03242 0
15707 1 4.63859 -6.29199 0.0125891 0.0019927 -3.56364e-05 7.37535e-06 1.03135 0
15709 1 4.60328 -6.10913 0.0138885 0.00251852 -5.05068e-05 1.08096e-05 1.0312 0
15712 1 4.74768 -6.1622 0.0131906 0.00220352 -3.29322e-05 3.52204e-06 1.0314 0
15668 1 4.73831 -6.57493 0.00804948 0.000786172 -1.90028e-05 1.45759e-06 1.0312 0
15711 1 4.76128 -6.38256 0.0110226 0.00148444 -2.50349e-05 2.22675e-06 1.0314 0
15717 1 4.88771 -6.21363 0.012208 0.00180379 -2.47039e-05 3.2974e-08 1.03171 0
15670 1 4.88449 -6.51417 0.00843688 0.000869879 -1.83746e-05 3.76913e-07 1.03139 0
15710 1 4.93285 -6.35927 0.0104581 0.0012869 -2.10231e-05 -4.00556e-07 1.03166 0
15718 1 5.09872 -6.11094 0.0122474 0.00172662 -1.9619e-05 -1.99761e-06 1.03177 0
14998 1 5.07099 -6.30646 0.0104975 0.00120368 -1.87496e-05 -8.75795e-07 1.03172 0
15671 1 5.01716 -6.55687 0.00707159 0.000572573 -1.52423e-05 5.19297e-07 1.03134 0
14982 1 5.15659 -6.4423 0.0084137 0.000718661 -1.50171e-05 -2.43082e-07 1.03141 0
15716 1 5.20448 -6.21197 0.0110067 0.00125523 -1.66481e-05 -1.70127e-06 1.03164 0
14995 1 5.32347 -6.48958 0.00717219 0.000440912 -1.12441e-05 1.69419e-08 1.03106 0
14999 1 5.304 -6.32835 0.00939818 0.000812168 -1.36516e-05 -9.94707e-07 1.03139 0