ITEM: TIMESTEP
64000
ITEM: NUMBER OF ATOMS
10465
ITEM: BOX BOUNDS ff ff pp
0.0000000000000000e+00 2.2000000000000000e+01
-1.0000000000000000e+01 1.0000000000000000e+01
-2.0000000000000000e-02 2.0000000000000000e-02
ITEM: ATOMS id type x y vx vy fx fy c_den c_phase
1501 2 2 -10 0 0 0 0 1 4
1551 2 2 -9.8 0 0 0 0 1 4
1601 2 2 -9.6 0 0 0 0 1 4
1502 2 2.2 -10 0 0 0 0 1 4
1503 2 2.4 -10 0 0 0 0 1 4
1552 2 2.2 -9.8 0 0 0 0 1 4
1553 2 2.4 -9.8 0 0 0 0 1 4
1602 2 2.2 -9.6 0 0 0 0 1 4
1603 2 2.4 -9.6 0 0 0 0 1 4
1504 2 2.6 -10 0 0 0 0 1 4
1505 2 2.8 -10 0 0 0 0 1 4
1554 2 2.6 -9.8 0 0 0 0 1 4
1555 2 2.8 -9.8 0 0 0 0 1 4
1604 2 2.6 -9.6 0 0 0 0 1 4
1605 2 2.8 -9.6 0 0 0 0 1 4
1506 2 3 -10 0 0 0 0 1 4
1507 2 3.2 -10 0 0 0 0 1 4
1556 2 3 -9.8 0 0 0 0 1 4
1557 2 3.2 -9.8 0 0 0 0 1 4
1606 2 3 -9.6 0 0 0 0 1 4
1607 2 3.2 -9.6 0 0 0 0 1 4
1508 2 3.4 -10 0 0 0 0 1 4
1509 2 3.6 -10 0 0 0 0 1 4
1558 2 3.4 -9.8 0 0 0 0 1 4
1559 2 3.6 -9.8 0 0 0 0 1 4
1608 2 3.4 -9.6 0 0 0 0 1 4
1609 2 3.6 -9.6 0 0 0 0 1 4
1510 2 3.8 -10 0 0 0 0 1 4
1560 2 3.8 -9.8 0 0 0 0 1 4
1610 2 3.8 -9.6 0 0 0 0 1 4
1511 2 4 -10 0 0 0 0 1 4
1561 2 4 -9.8 0 0 0 0 1 4
1611 2 4 -9.6 0 0 0 0 1 4
1512 2 4.2 -10 0 0 0 0 1 4
1562 2 4.2 -9.8 0 0 0 0 1 4
1612 2 4.2 -9.6 0 0 0 0 1 4
1513 2 4.4 -10 0 0 0 0 1 4
1514 2 4.6 -10 0 0 0 0 1 4
1563 2 4.4 -9.8 0 0 0 0 1 4
1564 2 4.6 -9.8 0 0 0 0 1 4
1613 2 4.4 -9.6 0 0 0 0 1 4
1614 2 4.6 -9.6 0 0 0 0 1 4
1515 2 4.8 -10 0 0 0 0 1 4
1516 2 5 -10 0 0 0 0 1 4
1565 2 4.8 -9.8 0 0 0 0 1 4
1566 2 5 -9.8 0 0 0 0 1 4
1615 2 4.8 -9.6 0 0 0 0 1 4
1616 2 5 -9.6 0 0 0 0 1 4
1517 2 5.2 -10 0 0 0 0 1 4
1518 2 5.4 -10 0 0 0 0 1 4
1567 2 5.2 -9.8 0 0 0 0 1 4
1568 2 5.4 -9.8 0 0 0 0 1 4
1617 2 5.2 -9.6 0 0 0 0 1 4
1618 2 5.4 -9.6 0 0 0 0 1 4
1519 2 5.6 -10 0 0 0 0 1 4
1520 2 5.8 -10 0 0 0 0 1 4
1569 2 5.6 -9.8 0 0 0 0 1 4
1570 2 5.8 -9.8 0 0 0 0 1 4
1619 2 5.6 -9.6 0 0 0 0 1 4
1620 2 5.8 -9.6 0 0 0 0 1 4
1521 2 6 -10 0 0 0 0 1 4
1522 2 6.2 -10 0 0 0 0 1 4
1571 2 6 -9.8 0 0 0 0 1 4
1572 2 6.2 -9.8 0 0 0 0 1 4
1621 2 6 -9.6 0 0 0 0 1 4
1622 2 6.2 -9.6 0 0 0 0 1 4
1523 2 6.4 -10 0 0 0 0 1 4
1524 2 6.6 -10 0 0 0 0 1 4
1573 2 6.4 -9.8 0 0 0 0 1 4
1574 2 6.6 -9.8 0 0 0 0 1 4
1623 2 6.4 -9.6 0 0 0 0 1 4
1624 2 6.6 -9.6 0 0 0 0 1 4
1525 2 6.8 -10 0 0 0 0 1 4
1526 2 7 -10 0 0 0 0 1 4
1575 2 6.8 -9.8 0 0 0 0 1 4
1576 2 7 -9.8 0 0 0 0 1 4
1625 2 6.8 -9.6 0 0 0 0 1 4
1626 2 7 -9.6 0 0 0 0 1 4
1527 2 7.2 -10 0 0 0 0 1 4
1577 2 7.2 -9.8 0 0 0 0 1 4
1627 2 7.2 -9.6 0 0 0 0 1 4
1528 2 7.4 -10 0 0 0 0 1 4
1529 2 7.6 -10 0 0 0 0 1 4
1578 2 7.4 -9.8 0 0 0 0 1 4
1579 2 7.6 -9.8 0 0 0 0 1 4
1628 2 7.4 -9.6 0 0 0 0 1 4
1629 2 7.6 -9.6 0 0 0 0 1 4
1530 2 7.8 -10 0 0 0 0 1 4
1531 2 8 -10 0 0 0 0 1 4
1580 2 7.8 -9.8 0 0 0 0 1 4
1581 2 8 -9.8 0 0 0 0 1 4
1630 2 7.8 -9.6 0 0 0 0 1 4
1631 2 8 -9.6 0 0 0 0 1 4
1532 2 8.2 -10 0 0 0 0 1 4
1533 2 8.4 -10 0 0 0 0 1 4
1582 2 8.2 -9.8 0 0 0 0 1 4
1583 2 8.4 -9.8 0 0 0 0 1 4
1632 2 8.2 -9.6 0 0 0 0 1 4
1633 2 8.4 -9.6 0 0 0 0 1 4
1534 2 8.6 -10 0 0 0 0 1 4
1535 2 8.8 -10 0 0 0 0 1 4
1584 2 8.6 -9.8 0 0 0 0 1 4
1585 2 8.8 -9.8 0 0 0 0 1 4
1634 2 8.6 -9.6 0 0 0 0 1 4
1635 2 8.8 -9.6 0 0 0 0 1 4
1536 2 9 -10 0 0 0 0 1 4
1537 2 9.2 -10 0 0 0 0 1 4
1586 2 9 -9.8 0 0 0 0 1 4
1587 2 9.2 -9.8 0 0 0 0 1 4
1636 2 9 -9.6 0 0 0 0 1 4
1637 2 9.2 -9.6 0 0 0 0 1 4
1538 2 9.4 -10 0 0 0 0 1 4
1539 2 9.6 -10 0 0 0 0 1 4
1588 2 9.4 -9.8 0 0 0 0 1 4
1589 2 9.6 -9.8 0 0 0 0 1 4
1638 2 9.4 -9.6 0 0 0 0 1 4
1639 2 9.6 -9.6 0 0 0 0 1 4
1540 2 9.8 -10 0 0 0 0 1 4
1590 2 9.8 -9.8 0 0 0 0 1 4
1640 2 9.8 -9.6 0 0 0 0 1 4
1541 2 10 -10 0 0 0 0 1 4
1591 2 10 -9.8 0 0 0 0 1 4
1641 2 10 -9.6 0 0 0 0 1 4
1542 2 10.2 -10 0 0 0 0 1 4
1592 2 10.2 -9.8 0 0 0 0 1 4
1642 2 10.2 -9.6 0 0 0 0 1 4
1543 2 10.4 -10 0 0 0 0 1 4
1593 2 10.4 -9.8 0 0 0 0 1 4
1643 2 10.4 -9.6 0 0 0 0 1 4
1544 2 10.6 -10 0 0 0 0 1 4
1594 2 10.6 -9.8 0 0 0 0 1 4
1644 2 10.6 -9.6 0 0 0 0 1 4
1545 2 10.8 -10 0 0 0 0 1 4
1595 2 10.8 -9.8 0 0 0 0 1 4
1645 2 10.8 -9.6 0 0 0 0 1 4
1651 2 2 -9.4 0 0 0 0 1 4
1701 2 2 -9.2 0 0 0 0 1 4
1652 2 2.2 -9.4 0 0 0 0 1 4
1653 2 2.4 -9.4 0 0 0 0 1 4
1702 2 2.2 -9.2 0 0 0 0 1 4
1703 2 2.4 -9.2 0 0 0 0 1 4
1654 2 2.6 -9.4 0 0 0 0 1 4
1655 2 2.8 -9.4 0 0 0 0 1 4
1704 2 2.6 -9.2 0 0 0 0 1 4
1705 2 2.8 -9.2 0 0 0 0 1 4
1656 2 3 -9.4 0 0 0 0 1 4
1657 2 3.2 -9.4 0 0 0 0 1 4
1706 2 3 -9.2 0 0 0 0 1 4
1707 2 3.2 -9.2 0 0 0 0 1 4
1658 2 3.4 -9.4 0 0 0 0 1 4
1659 2 3.6 -9.4 0 0 0 0 1 4
1708 2 3.4 -9.2 0 0 0 0 1 4
1709 2 3.6 -9.2 0 0 0 0 1 4
1660 2 3.8 -9.4 0 0 0 0 1 4
1710 2 3.8 -9.2 0 0 0 0 1 4
1661 2 4 -9.4 0 0 0 0 1 4
1711 2 4 -9.2 0 0 0 0 1 4
1662 2 4.2 -9.4 0 0 0 0 1 4
1712 2 4.2 -9.2 0 0 0 0 1 4
1663 2 4.4 -9.4 0 0 0 0 1 4
1664 2 4.6 -9.4 0 0 0 0 1 4
1713 2 4.4 -9.2 0 0 0 0 1 4
1714 2 4.6 -9.2 0 0 0 0 1 4
1665 2 4.8 -9.4 0 0 0 0 1 4
1666 2 5 -9.4 0 0 0 0 1 4
1715 2 4.8 -9.2 0 0 0 0 1 4
1716 2 5 -9.2 0 0 0 0 1 4
1667 2 5.2 -9.4 0 0 0 0 1 4
1668 2 5.4 -9.4 0 0 0 0 1 4
1717 2 5.2 -9.2 0 0 0 0 1 4
1718 2 5.4 -9.2 0 0 0 0 1 4
1669 2 5.6 -9.4 0 0 0 0 1 4
1670 2 5.8 -9.4 0 0 0 0 1 4
1719 2 5.6 -9.2 0 0 0 0 1 4
1720 2 5.8 -9.2 0 0 0 0 1 4
1671 2 6 -9.4 0 0 0 0 1 4
1672 2 6.2 -9.4 0 0 0 0 1 4
1721 2 6 -9.2 0 0 0 0 1 4
1722 2 6.2 -9.2 0 0 0 0 1 4
1673 2 6.4 -9.4 0 0 0 0 1 4
1674 2 6.6 -9.4 0 0 0 0 1 4
1723 2 6.4 -9.2 0 0 0 0 1 4
1724 2 6.6 -9.2 0 0 0 0 1 4
1675 2 6.8 -9.4 0 0 0 0 1 4
1676 2 7 -9.4 0 0 0 0 1 4
1725 2 6.8 -9.2 0 0 0 0 1 4
1726 2 7 -9.2 0 0 0 0 1 4
1677 2 7.2 -9.4 0 0 0 0 1 4
1727 2 7.2 -9.2 0 0 0 0 1 4
1678 2 7.4 -9.4 0 0 0 0 1 4
1679 2 7.6 -9.4 0 0 0 0 1 4
1728 2 7.4 -9.2 0 0 0 0 1 4
1729 2 7.6 -9.2 0 0 0 0 1 4
1680 2 7.8 -9.4 0 0 0 0 1 4
1681 2 8 -9.4 0 0 0 0 1 4
1730 2 7.8 -9.2 0 0 0 0 1 4
1731 2 8 -9.2 0 0 0 0 1 4
1682 2 8.2 -9.4 0 0 0 0 1 4
1683 2 8.4 -9.4 0 0 0 0 1 4
1732 2 8.2 -9.2 0 0 0 0 1 4
1733 2 8.4 -9.2 0 0 0 0 1 4
1684 2 8.6 -9.4 0 0 0 0 1 4
1685 2 8.8 -9.4 0 0 0 0 1 4
1734 2 8.6 -9.2 0 0 0 0 1 4
1735 2 8.8 -9.2 0 0 0 0 1 4
1686 2 9 -9.4 0 0 0 0 1 4
1687 2 9.2 -9.4 0 0 0 0 1 4
1736 2 9 -9.2 0 0 0 0 1 4
1737 2 9.2 -9.2 0 0 0 0 1 4
1688 2 9.4 -9.4 0 0 0 0 1 4
1689 2 9.6 -9.4 0 0 0 0 1 4
1738 2 9.4 -9.2 0 0 0 0 1 4
1739 2 9.6 -9.2 0 0 0 0 1 4
1690 2 9.8 -9.4 0 0 0 0 1 4
1740 2 9.8 -9.2 0 0 0 0 1 4
1691 2 10 -9.4 0 0 0 0 1 4
1741 2 10 -9.2 0 0 0 0 1 4
1692 2 10.2 -9.4 0 0 0 0 1 4
1742 2 10.2 -9.2 0 0 0 0 1 4
1693 2 10.4 -9.4 0 0 0 0 1 4
1743 2 10.4 -9.2 0 0 0 0 1 4
1694 2 10.6 -9.4 0 0 0 0 1 4
1744 2 10.6 -9.2 0 0 0 0 1 4
1695 2 10.8 -9.4 0 0 0 0 1 4
1745 2 10.8 -9.2 0 0 0 0 1 4
1751 2 2 -9 0 0 0 0 1 4
1801 2 2 -8.8 0 0 0 0 1 4
1752 2 2.2 -9 0 0 0 0 1 4
1753 2 2.4 -9 0 0 0 0 1 4
1802 2 2.2 -8.8 0 0 0 0 1 4
1803 2 2.4 -8.8 0 0 0 0 1 4
1754 2 2.6 -9 0 0 0 0 1 4
1755 2 2.8 -9 0 0 0 0 1 4
1804 2 2.6 -8.8 0 0 0 0 1 4
1805 2 2.8 -8.8 0 0 0 0 1 4
1756 2 3 -9 0 0 0 0 1 4
1757 2 3.2 -9 0 0 0 0 1 4
1806 2 3 -8.8 0 0 0 0 1 4
1807 2 3.2 -8.8 0 0 0 0 1 4
1758 2 3.4 -9 0 0 0 0 1 4
1759 2 3.6 -9 0 0 0 0 1 4
1808 2 3.4 -8.8 0 0 0 0 1 4
1809 2 3.6 -8.8 0 0 0 0 1 4
1760 2 3.8 -9 0 0 0 0 1 4
1810 2 3.8 -8.8 0 0 0 0 1 4
1761 2 4 -9 0 0 0 0 1 4
1811 2 4 -8.8 0 0 0 0 1 4
1762 2 4.2 -9 0 0 0 0 1 4
1812 2 4.2 -8.8 0 0 0 0 1 4
1763 2 4.4 -9 0 0 0 0 1 4
1764 2 4.6 -9 0 0 0 0 1 4
1813 2 4.4 -8.8 0 0 0 0 1 4
1814 2 4.6 -8.8 0 0 0 0 1 4
1765 2 4.8 -9 0 0 0 0 1 4
1766 2 5 -9 0 0 0 0 1 4
1815 2 4.8 -8.8 0 0 0 0 1 4
1816 2 5 -8.8 0 0 0 0 1 4
1767 2 5.2 -9 0 0 0 0 1 4
1768 2 5.4 -9 0 0 0 0 1 4
1817 2 5.2 -8.8 0 0 0 0 1 4
1818 2 5.4 -8.8 0 0 0 0 1 4
1769 2 5.6 -9 0 0 0 0 1 4
1770 2 5.8 -9 0 0 0 0 1 4
1819 2 5.6 -8.8 0 0 0 0 1 4
1820 2 5.8 -8.8 0 0 0 0 1 4
1771 2 6 -9 0 0 0 0 1 4
1772 2 6.2 -9 0 0 0 0 1 4
1821 2 6 -8.8 0 0 0 0 1 4
1822 2 6.2 -8.8 0 0 0 0 1 4
1773 2 6.4 -9 0 0 0 0 1 4
1774 2 6.6 -9 0 0 0 0 1 4
1823 2 6.4 -8.8 0 0 0 0 1 4
1824 2 6.6 -8.8 0 0 0 0 1 4
1775 2 6.8 -9 0 0 0 0 1 4
1776 2 7 -9 0 0 0 0 1 4
1825 2 6.8 -8.8 0 0 0 0 1 4
1826 2 7 -8.8 0 0 0 0 1 4
1777 2 7.2 -9 0 0 0 0 1 4
1827 2 7.2 -8.8 0 0 0 0 1 4
1778 2 7.4 -9 0 0 0 0 1 4
1779 2 7.6 -9 0 0 0 0 1 4
1828 2 7.4 -8.8 0 0 0 0 1 4
1829 2 7.6 -8.8 0 0 0 0 1 4
1780 2 7.8 -9 0 0 0 0 1 4
1781 2 8 -9 0 0 0 0 1 4
1830 2 7.8 -8.8 0 0 0 0 1 4
1831 2 8 -8.8 0 0 0 0 1 4
1782 2 8.2 -9 0 0 0 0 1 4
1783 2 8.4 -9 0 0 0 0 1 4
1832 2 8.2 -8.8 0 0 0 0 1 4
1833 2 8.4 -8.8 0 0 0 0 1 4
1784 2 8.6 -9 0 0 0 0 1 4
1785 2 8.8 -9 0 0 0 0 1 4
1834 2 8.6 -8.8 0 0 0 0 1 4
1835 2 8.8 -8.8 0 0 0 0 1 4
1786 2 9 -9 0 0 0 0 1 4
1787 2 9.2 -9 0 0 0 0 1 4
1836 2 9 -8.8 0 0 0 0 1 4
1837 2 9.2 -8.8 0 0 0 0 1 4
1788 2 9.4 -9 0 0 0 0 1 4
1789 2 9.6 -9 0 0 0 0 1 4
1838 2 9.4 -8.8 0 0 0 0 1 4
1839 2 9.6 -8.8 0 0 0 0 1 4
1790 2 9.8 -9 0 0 0 0 1 4
1840 2 9.8 -8.8 0 0 0 0 1 4
1791 2 10 -9 0 0 0 0 1 4
1841 2 10 -8.8 0 0 0 0 1 4
1792 2 10.2 -9 0 0 0 0 1 4
1842 2 10.2 -8.8 0 0 0 0 1 4
1793 2 10.4 -9 0 0 0 0 1 4
1843 2 10.4 -8.8 0 0 0 0 1 4
1794 2 10.6 -9 0 0 0 0 1 4
1844 2 10.6 -8.8 0 0 0 0 1 4
1795 2 10.8 -9 0 0 0 0 1 4
1845 2 10.8 -8.8 0 0 0 0 1 4
1851 2 2 -8.6 0 0 0 0 1 4
1901 2 2 -8.4 0 0 0 0 1 4
1852 2 2.2 -8.6 0 0 0 0 1 4
1853 2 2.4 -8.6 0 0 0 0 1 4
1902 2 2.2 -8.4 0 0 0 0 1 4
1903 2 2.4 -8.4 0 0 0 0 1 4
1854 2 2.6 -8.6 0 0 0 0 1 4
1855 2 2.8 -8.6 0 0 0 0 1 4
1904 2 2.6 -8.4 0 0 0 0 1 4
1905 2 2.8 -8.4 0 0 0 0 1 4
1856 2 3 -8.6 0 0 0 0 1 4
1857 2 3.2 -8.6 0 0 0 0 1 4
1906 2 3 -8.4 0 0 0 0 1 4
1907 2 3.2 -8.4 0 0 0 0 1 4
1858 2 3.4 -8.6 0 0 0 0 1 4
1859 2 3.6 -8.6 0 0 0 0 1 4
1908 2 3.4 -8.4 0 0 0 0 1 4
1909 2 3.6 -8.4 0 0 0 0 1 4
1860 2 3.8 -8.6 0 0 0 0 1 4
1910 2 3.8 -8.4 0 0 0 0 1 4
1861 2 4 -8.6 0 0 0 0 1 4
1911 2 4 -8.4 0 0 0 0 1 4
1862 2 4.2 -8.6 0 0 0 0 1 4
1912 2 4.2 -8.4 0 0 0 0 1 4
1863 2 4.4 -8.6 0 0 0 0 1 4
1864 2 4.6 -8.6 0 0 0 0 1 4
1913 2 4.4 -8.4 0 0 0 0 1 4
1914 2 4.6 -8.4 0 0 0 0 1 4
1865 2 4.8 -8.6 0 0 0 0 1 4
1866 2 5 -8.6 0 0 0 0 1 4
1915 2 4.8 -8.4 0 0 0 0 1 4
1916 2 5 -8.4 0 0 0 0 1 4
1867 2 5.2 -8.6 0 0 0 0 1 4
1868 2 5.4 -8.6 0 0 0 0 1 4
1917 2 5.2 -8.4 0 0 0 0 1 4
1918 2 5.4 -8.4 0 0 0 0 1 4
1869 2 5.6 -8.6 0 0 0 0 1 4
1870 2 5.8 -8.6 0 0 0 0 1 4
1919 2 5.6 -8.4 0 0 0 0 1 4
1920 2 5.8 -8.4 0 0 0 0 1 4
1871 2 6 -8.6 0 0 0 0 1 4
1872 2 6.2 -8.6 0 0 0 0 1 4
1921 2 6 -8.4 0 0 0 0 1 4
1922 2 6.2 -8.4 0 0 0 0 1 4
1873 2 6.4 -8.6 0 0 0 0 1 4
1874 2 6.6 -8.6 0 0 0 0 1 4
1923 2 6.4 -8.4 0 0 0 0 1 4
1924 2 6.6 -8.4 0 0 0 0 1 4
1875 2 6.8 -8.6 0 0 0 0 1 4
1876 2 7 -8.6 0 0 0 0 1 4
1925 2 6.8 -8.4 0 0 0 0 1 4
1926 2 7 -8.4 0 0 0 0 1 4
1877 2 7.2 -8.6 0 0 0 0 1 4
1927 2 7.2 -8.4 0 0 0 0 1 4
1878 2 7.4 -8.6 0 0 0 0 1 4
1879 2 7.6 -8.6 0 0 0 0 1 4
1928 2 7.4 -8.4 0 0 0 0 1 4
1929 2 7.6 -8.4 0 0 0 0 1 4
1880 2 7.8 -8.6 0 0 0 0 1 4
1881 2 8 -8.6 0 0 0 0 1 4
1930 2 7.8 -8.4 0 0 0 0 1 4
1931 2 8 -8.4 0 0 0 0 1 4
1882 2 8.2 -8.6 0 0 0 0 1 4
1883 2 8.4 -8.6 0 0 0 0 1 4
1932 2 8.2 -8.4 0 0 0 0 1 4
1933 2 8.4 -8.4 0 0 0 0 1 4
1884 2 8.6 -8.6 0 0 0 0 1 4
1885 2 8.8 -8.6 0 0 0 0 1 4
1934 2 8.6 -8.4 0 0 0 0 1 4
1935 2 8.8 -8.4 0 0 0 0 1 4
1886 2 9 -8.6 0 0 0 0 1 4
1887 2 9.2 -8.6 0 0 0 0 1 4
1936 2 9 -8.4 0 0 0 0 1 4
1937 2 9.2 -8.4 0 0 0 0 1 4
1888 2 9.4 -8.6 0 0 0 0 1 4
1889 2 9.6 -8.6 0 0 0 0 1 4
1938 2 9.4 -8.4 0 0 0 0 1 4
1939 2 9.6 -8.4 0 0 0 0 1 4
1890 2 9.8 -8.6 0 0 0 0 1 4
1940 2 9.8 -8.4 0 0 0 0 1 4
1891 2 10 -8.6 0 0 0 0 1 4
1941 2 10 -8.4 0 0 0 0 1 4
1892 2 10.2 -8.6 0 0 0 0 1 4
1942 2 10.2 -8.4 0 0 0 0 1 4
1893 2 10.4 -8.6 0 0 0 0 1 4
1943 2 10.4 -8.4 0 0 0 0 1 4
1894 2 10.6 -8.6 0 0 0 0 1 4
1944 2 10.6 -8.4 0 0 0 0 1 4
1895 2 10.8 -8.6 0 0 0 0 1 4
1945 2 10.8 -8.4 0 0 0 0 1 4
1951 2 2 -8.2 0 0 0 0 1 4
2001 2 2 -8 0 0 0 0 1 4
1952 2 2.2 -8.2 0 0 0 0 1 4
1953 2 2.4 -8.2 0 0 0 0 1 4
2002 2 2.2 -8 0 0 0 0 1 4
2003 2 2.4 -8 0 0 0 0 1 4
1954 2 2.6 -8.2 0 0 0 0 1 4
1955 2 2.8 -8.2 0 0 0 0 1 4
2004 2 2.6 -8 0 0 0 0 1 4
2005 2 2.8 -8 0 0 0 0 1 4
1956 2 3 -8.2 0 0 0 0 1 4
1957 2 3.2 -8.2 0 0 0 0 1 4
2006 2 3 -8 0 0 0 0 1 4
2007 2 3.2 -8 0 0 0 0 1 4
1958 2 3.4 -8.2 0 0 0 0 1 4
1959 2 3.6 -8.2 0 0 0 0 1 4
2008 2 3.4 -8 0 0 0 0 1 4
2009 2 3.6 -8 0 0 0 0 1 4
1960 2 3.8 -8.2 0 0 0 0 1 4
2010 2 3.8 -8 0 0 0 0 1 4
1961 2 4 -8.2 0 0 0 0 1 4
2011 2 4 -8 0 0 0 0 1 4
1962 2 4.2 -8.2 0 0 0 0 1 4
2012 2 4.2 -8 0 0 0 0 1 4
1963 2 4.4 -8.2 0 0 0 0 1 4
1964 2 4.6 -8.2 0 0 0 0 1 4
2013 2 4.4 -8 0 0 0 0 1 4
2014 2 4.6 -8 0 0 0 0 1 4
1965 2 4.8 -8.2 0 0 0 0 1 4
1966 2 5 -8.2 0 0 0 0 1 4
2015 2 4.8 -8 0 0 0 0 1 4
2016 2 5 -8 0 0 0 0 1 4
1967 2 5.2 -8.2 0 0 0 0 1 4
1968 2 5.4 -8.2 0 0 0 0 1 4
2017 2 5.2 -8 0 0 0 0 1 4
2018 2 5.4 -8 0 0 0 0 1 4
1969 2 5.6 -8.2 0 0 0 0 1 4
1970 2 5.8 -8.2 0 0 0 0 1 4
2019 2 5.6 -8 0 0 0 0 1 4
2020 2 5.8 -8 0 0 0 0 1 4
1971 2 6 -8.2 0 0 0 0 1 4
1972 2 6.2 -8.2 0 0 0 0 1 4
2021 2 6 -8 0 0 0 0 1 4
2022 2 6.2 -8 0 0 0 0 1 4
1973 2 6.4 -8.2 0 0 0 0 1 4
1974 2 6.6 -8.2 0 0 0 0 1 4
2023 2 6.4 -8 0 0 0 0 1 4
2024 2 6.6 -8 0 0 0 0 1 4
1975 2 6.8 -8.2 0 0 0 0 1 4
1976 2 7 -8.2 0 0 0 0 1 4
2025 2 6.8 -8 0 0 0 0 1 4
2026 2 7 -8 0 0 0 0 1 4
1977 2 7.2 -8.2 0 0 0 0 1 4
2027 2 7.2 -8 0 0 0 0 1 4
1978 2 7.4 -8.2 0 0 0 0 1 4
1979 2 7.6 -8.2 0 0 0 0 1 4
2028 2 7.4 -8 0 0 0 0 1 4
2029 2 7.6 -8 0 0 0 0 1 4
1980 2 7.8 -8.2 0 0 0 0 1 4
1981 2 8 -8.2 0 0 0 0 1 4
2030 2 7.8 -8 0 0 0 0 1 4
2031 2 8 -8 0 0 0 0 1 4
1982 2 8.2 -8.2 0 0 0 0 1 4
1983 2 8.4 -8.2 0 0 0 0 1 4
2032 2 8.2 -8 0 0 0 0 1 4
2033 2 8.4 -8 0 0 0 0 1 4
1984 2 8.6 -8.2 0 0 0 0 1 4
1985 2 8.8 -8.2 0 0 0 0 1 4
2034 2 8.6 -8 0 0 0 0 1 4
2035 2 8.8 -8 0 0 0 0 1 4
1986 2 9 -8.2 0 0 0 0 1 4
1987 2 9.2 -8.2 0 0 0 0 1 4
2036 2 9 -8 0 0 0 0 1 4
2037 2 9.2 -8 0 0 0 0 1 4
1988 2 9.4 -8.2 0 0 0 0 1 4
1989 2 9.6 -8.2 0 0 0 0 1 4
2038 2 9.4 -8 0 0 0 0 1 4
2039 2 9.6 -8 0 0 0 0 1 4
1990 2 9.8 -8.2 0 0 0 0 1 4
2040 2 9.8 -8 0 0 0 0 1 4
1991 2 10 -8.2 0 0 0 0 1 4
2041 2 10 -8 0 0 0 0 1 4
1992 2 10.2 -8.2 0 0 0 0 1 4
2042 2 10.2 -8 0 0 0 0 1 4
1993 2 10.4 -8.2 0 0 0 0 1 4
2043 2 10.4 -8 0 0 0 0 1 4
1994 2 10.6 -8.2 0 0 0 0 1 4
2044 2 10.6 -8 0 0 0 0 1 4
1995 2 10.8 -8.2 0 0 0 0 1 4
2045 2 10.8 -8 0 0 0 0 1 4
2051 2 2 -7.8 0 0 0 0 1 4
2101 2 2 -7.6 0 0 0 0 1 4
2151 2 2 -7.4 0 0 0 0 0.99999 4
2052 2 2.2 -7.8 0 0 0 0 1 4
2053 2 2.4 -7.8 0 0 0 0 1 4
2102 2 2.2 -7.6 0 0 0 0 1 4
2103 2 2.4 -7.6 0 0 0 0 1 4
2152 2 2.2 -7.4 0 0 0 0 0.999914 4
2153 2 2.4 -7.4 0 0 0 0 0.999988 4
2054 2 2.6 -7.8 0 0 0 0 1 4
2055 2 2.8 -7.8 0 0 0 0 1 4
2104 2 2.6 -7.6 0 0 0 0 1 4
2105 2 2.8 -7.6 0 0 0 0 1 4
2154 2 2.6 -7.4 0 0 0 0 1 4
2155 2 2.8 -7.4 0 0 0 0 0.999997 4
2056 2 3 -7.8 0 0 0 0 1 4
2057 2 3.2 -7.8 0 0 0 0 1 4
2106 2 3 -7.6 0 0 0 0 1 4
2107 2 3.2 -7.6 0 0 0 0 1 4
2156 2 3 -7.4 0 0 0 0 1.00001 4
2157 2 3.2 -7.4 0 0 0 0 1.00001 4
2058 2 3.4 -7.8 0 0 0 0 1 4
2059 2 3.6 -7.8 0 0 0 0 1 4
2108 2 3.4 -7.6 0 0 0 0 1 4
2109 2 3.6 -7.6 0 0 0 0 1 4
2158 2 3.4 -7.4 0 0 0 0 0.999998 4
2159 2 3.6 -7.4 0 0 0 0 1 4
2060 2 3.8 -7.8 0 0 0 0 1 4
2110 2 3.8 -7.6 0 0 0 0 1 4
2160 2 3.8 -7.4 0 0 0 0 1.00009 4
2061 2 4 -7.8 0 0 0 0 1 4
2111 2 4 -7.6 0 0 0 0 1 4
2161 2 4 -7.4 0 0 0 0 1.00774 4
2062 2 4.2 -7.8 0 0 0 0 1 4
2112 2 4.2 -7.6 0 0 0 0 1 4
2162 2 4.2 -7.4 0 0 0 0 1.01064 4
2063 2 4.4 -7.8 0 0 0 0 1 4
2064 2 4.6 -7.8 0 0 0 0 1 4
2113 2 4.4 -7.6 0 0 0 0 1 4
2114 2 4.6 -7.6 0 0 0 0 1 4
2163 2 4.4 -7.4 0 0 0 0 1.00503 4
2164 2 4.6 -7.4 0 0 0 0 1.00329 4
2065 2 4.8 -7.8 0 0 0 0 1 4
2066 2 5 -7.8 0 0 0 0 1 4
2115 2 4.8 -7.6 0 0 0 0 1 4
2116 2 5 -7.6 0 0 0 0 1 4
2165 2 4.8 -7.4 0 0 0 0 1.00252 4
2166 2 5 -7.4 0 0 0 0 1.00193 4
2067 2 5.2 -7.8 0 0 0 0 1 4
2068 2 5.4 -7.8 0 0 0 0 1 4
2117 2 5.2 -7.6 0 0 0 0 1 4
2118 2 5.4 -7.6 0 0 0 0 1 4
2167 2 5.2 -7.4 0 0 0 0 1.0019 4
2168 2 5.4 -7.4 0 0 0 0 1.00201 4
2069 2 5.6 -7.8 0 0 0 0 1 4
2070 2 5.8 -7.8 0 0 0 0 1 4
2119 2 5.6 -7.6 0 0 0 0 1 4
2120 2 5.8 -7.6 0 0 0 0 1 4
2169 2 5.6 -7.4 0 0 0 0 1.00188 4
2170 2 5.8 -7.4 0 0 0 0 1.0018 4
2071 2 6 -7.8 0 0 0 0 1 4
2072 2 6.2 -7.8 0 0 0 0 1 4
2121 2 6 -7.6 0 0 0 0 1 4
2122 2 6.2 -7.6 0 0 0 0 1 4
2171 2 6 -7.4 0 0 0 0 1.00167 4
2172 2 6.2 -7.4 0 0 0 0 1.00179 4
2073 2 6.4 -7.8 0 0 0 0 1 4
2074 2 6.6 -7.8 0 0 0 0 1 4
2123 2 6.4 -7.6 0 0 0 0 1 4
2124 2 6.6 -7.6 0 0 0 0 1 4
2173 2 6.4 -7.4 0 0 0 0 1.00154 4
2174 2 6.6 -7.4 0 0 0 0 1.00149 4
2075 2 6.8 -7.8 0 0 0 0 1 4
2076 2 7 -7.8 0 0 0 0 1 4
2125 2 6.8 -7.6 0 0 0 0 1 4
2126 2 7 -7.6 0 0 0 0 1 4
2175 2 6.8 -7.4 0 0 0 0 1.00152 4
2176 2 7 -7.4 0 0 0 0 1.00161 4
2077 2 7.2 -7.8 0 0 0 0 1 4
2127 2 7.2 -7.6 0 0 0 0 1 4
2177 2 7.2 -7.4 0 0 0 0 1.00152 4
2078 2 7.4 -7.8 0 0 0 0 1 4
2079 2 7.6 -7.8 0 0 0 0 1 4
2128 2 7.4 -7.6 0 0 0 0 1 4
2129 2 7.6 -7.6 0 0 0 0 1 4
2178 2 7.4 -7.4 0 0 0 0 1.00162 4
2179 2 7.6 -7.4 0 0 0 0 1.00173 4
2080 2 7.8 -7.8 0 0 0 0 1 4
2081 2 8 -7.8 0 0 0 0 1 4
2130 2 7.8 -7.6 0 0 0 0 1 4
2131 2 8 -7.6 0 0 0 0 1 4
2180 2 7.8 -7.4 0 0 0 0 1.00154 4
2181 2 8 -7.4 0 0 0 0 1.00154 4
2082 2 8.2 -7.8 0 0 0 0 1 4
2083 2 8.4 -7.8 0 0 0 0 1 4
2132 2 8.2 -7.6 0 0 0 0 1 4
2133 2 8.4 -7.6 0 0 0 0 1 4
2182 2 8.2 -7.4 0 0 0 0 1.00141 4
2183 2 8.4 -7.4 0 0 0 0 1.00149 4
2084 2 8.6 -7.8 0 0 0 0 1 4
2085 2 8.8 -7.8 0 0 0 0 1 4
2134 2 8.6 -7.6 0 0 0 0 1 4
2135 2 8.8 -7.6 0 0 0 0 1 4
2184 2 8.6 -7.4 0 0 0 0 1.00148 4
2185 2 8.8 -7.4 0 0 0 0 1.00142 4
2086 2 9 -7.8 0 0 0 0 1 4
2087 2 9.2 -7.8 0 0 0 0 1 4
2136 2 9 -7.6 0 0 0 0 1 4
2137 2 9.2 -7.6 0 0 0 0 1 4
2186 2 9 -7.4 0 0 0 0 1.0015 4
2187 2 9.2 -7.4 0 0 0 0 1.00141 4
2088 2 9.4 -7.8 0 0 0 0 1 4
2089 2 9.6 -7.8 0 0 0 0 1 4
2138 2 9.4 -7.6 0 0 0 0 1 4
2139 2 9.6 -7.6 0 0 0 0 1 4
2188 2 9.4 -7.4 0 0 0 0 1.00142 4
2189 2 9.6 -7.4 0 0 0 0 1.00136 4
2090 2 9.8 -7.8 0 0 0 0 1 4
2140 2 9.8 -7.6 0 0 0 0 1 4
2190 2 9.8 -7.4 0 0 0 0 1.00134 4
2091 2 10 -7.8 0 0 0 0 1 4
2141 2 10 -7.6 0 0 0 0 1 4
2191 2 10 -7.4 0 0 0 0 1.00121 4
2092 2 10.2 -7.8 0 0 0 0 1 4
2142 2 10.2 -7.6 0 0 0 0 1 4
2192 2 10.2 -7.4 0 0 0 0 1.00128 4
2093 2 10.4 -7.8 0 0 0 0 1 4
2143 2 10.4 -7.6 0 0 0 0 1 4
2193 2 10.4 -7.4 0 0 0 0 1.00139 4
2094 2 10.6 -7.8 0 0 0 0 1 4
2144 2 10.6 -7.6 0 0 0 0 1 4
2194 2 10.6 -7.4 0 0 0 0 1.00115 4
2095 2 10.8 -7.8 0 0 0 0 1 4
2145 2 10.8 -7.6 0 0 0 0 1 4
2195 2 10.8 -7.4 0 0 0 0 1.00125 4
2201 2 2 -7.2 0 0 0 0 0.99985 4
2251 2 2 -7 0 0 0 0 0.99986 4
2202 2 2.2 -7.2 0 0 0 0 0.999947 4
2203 2 2.4 -7.2 0 0 0 0 0.999973 4
2252 2 2.2 -7 0 0 0 0 0.999955 4
2253 2 2.4 -7 0 0 0 0 0.999976 4
2204 2 2.6 -7.2 0 0 0 0 0.999998 4
2205 2 2.8 -7.2 0 0 0 0 1 4
2254 2 2.6 -7 0 0 0 0 0.999997 4
2255 2 2.8 -7 0 0 0 0 1 4
2206 2 3 -7.2 0 0 0 0 1.00001 4
2207 2 3.2 -7.2 0 0 0 0 1.00001 4
2256 2 3 -7 0 0 0 0 1.00001 4
2257 2 3.2 -7 0 0 0 0 1 4
2208 2 3.4 -7.2 0 0 0 0 0.999999 4
2209 2 3.6 -7.2 0 0 0 0 1.00006 4
2258 2 3.4 -7 0 0 0 0 1 4
2259 2 3.6 -7 0 0 0 0 1.00041 4
2210 2 3.8 -7.2 0 0 0 0 1.00203 4
2260 2 3.8 -7 0 0 0 0 1.00318 4
2211 2 4 -7.2 0 0 0 0 1.00505 4
2261 2 4 -7 0 0 0 0 1.00513 4
2212 2 4.2 -7.2 0 0 0 0 1.00766 4
2262 2 4.2 -7 0 0 0 0 1.00657 4
2213 2 4.4 -7.2 0 0 0 0 1.00672 4
2214 2 4.6 -7.2 0 0 0 0 1.00365 4
2263 2 4.4 -7 0 0 0 0 1.00662 4
2264 2 4.6 -7 0 0 0 0 1.00416 4
2215 2 4.8 -7.2 0 0 0 0 1.00274 4
2216 2 5 -7.2 0 0 0 0 1.00231 4
2265 2 4.8 -7 0 0 0 0 1.0031 4
2266 2 5 -7 0 0 0 0 1.00269 4
2217 2 5.2 -7.2 0 0 0 0 1.0023 4
2218 2 5.4 -7.2 0 0 0 0 1.00218 4
2267 2 5.2 -7 0 0 0 0 1.00257 4
2268 2 5.4 -7 0 0 0 0 1.00235 4
2219 2 5.6 -7.2 0 0 0 0 1.00205 4
2220 2 5.8 -7.2 0 0 0 0 1.00186 4
2269 2 5.6 -7 0 0 0 0 1.0022 4
2270 2 5.8 -7 0 0 0 0 1.002 4
2221 2 6 -7.2 0 0 0 0 1.00175 4
2222 2 6.2 -7.2 0 0 0 0 1.00185 4
2271 2 6 -7 0 0 0 0 1.00187 4
2272 2 6.2 -7 0 0 0 0 1.0019 4
2223 2 6.4 -7.2 0 0 0 0 1.0017 4
2224 2 6.6 -7.2 0 0 0 0 1.00161 4
2273 2 6.4 -7 0 0 0 0 1.00179 4
2274 2 6.6 -7 0 0 0 0 1.00172 4
2225 2 6.8 -7.2 0 0 0 0 1.00163 4
2226 2 7 -7.2 0 0 0 0 1.00168 4
2275 2 6.8 -7 0 0 0 0 1.00173 4
2276 2 7 -7 0 0 0 0 1.00174 4
2227 2 7.2 -7.2 0 0 0 0 1.00163 4
2277 2 7.2 -7 0 0 0 0 1.0017 4
2228 2 7.4 -7.2 0 0 0 0 1.00167 4
2229 2 7.6 -7.2 0 0 0 0 1.00171 4
2278 2 7.4 -7 0 0 0 0 1.00171 4
2279 2 7.6 -7 0 0 0 0 1.00172 4
2230 2 7.8 -7.2 0 0 0 0 1.0016 4
2231 2 8 -7.2 0 0 0 0 1.00154 4
2280 2 7.8 -7 0 0 0 0 1.00165 4
2281 2 8 -7 0 0 0 0 1.00159 4
2232 2 8.2 -7.2 0 0 0 0 1.00148 4
2233 2 8.4 -7.2 0 0 0 0 1.00153 4
2282 2 8.2 -7 0 0 0 0 1.00156 4
2283 2 8.4 -7 0 0 0 0 1.00159 4
2234 2 8.6 -7.2 0 0 0 0 1.00153 4
2235 2 8.8 -7.2 0 0 0 0 1.0015 4
2284 2 8.6 -7 0 0 0 0 1.00158 4
2285 2 8.8 -7 0 0 0 0 1.00155 4
2236 2 9 -7.2 0 0 0 0 1.00151 4
2237 2 9.2 -7.2 0 0 0 0 1.00146 4
2286 2 9 -7 0 0 0 0 1.00154 4
2287 2 9.2 -7 0 0 0 0 1.0015 4
2238 2 9.4 -7.2 0 0 0 0 1.00144 4
2239 2 9.6 -7.2 0 0 0 0 1.0014 4
2288 2 9.4 -7 0 0 0 0 1.00147 4
2289 2 9.6 -7 0 0 0 0 1.00144 4
2240 2 9.8 -7.2 0 0 0 0 1.00138 4
2290 2 9.8 -7 0 0 0 0 1.00141 4
2241 2 10 -7.2 0 0 0 0 1.00131 4
2291 2 10 -7 0 0 0 0 1.00135 4
2242 2 10.2 -7.2 0 0 0 0 1.00132 4
2292 2 10.2 -7 0 0 0 0 1.00135 4
2243 2 10.4 -7.2 0 0 0 0 1.00134 4
2293 2 10.4 -7 0 0 0 0 1.00134 4
2244 2 10.6 -7.2 0 0 0 0 1.00121 4
2294 2 10.6 -7 0 0 0 0 1.00127 4
2245 2 10.8 -7.2 0 0 0 0 1.00128 4
2295 2 10.8 -7 0 0 0 0 1.00131 4
14312 1 1.77579 -6.76109 0.02 0 0 0 0.999653 1
14313 1 1.79612 -6.57974 0.02 0 0 0 1.00004 1
14314 1 1.98666 -6.74254 0.02 0 0 0 1.00003 1
14316 1 2.01145 -6.56775 0.02 0 0 0 1.00001 1
14315 1 2.19907 -6.7662 0.02 0 0 0 0.999957 1
14317 1 2.21712 -6.57957 0.02 0 0 0 0.999995 1
14318 1 2.42345 -6.76418 0.02 0 0 0 0.999996 1
14320 1 2.42314 -6.58622 0.02 0 0 0 0.999998 1
14319 1 2.63622 -6.75047 0.02 0 0 0 1 1
14321 1 2.63301 -6.5729 0.02 0 0 0 1 1
14322 1 2.83865 -6.74763 0.02 0 0 0 0.999998 1
14323 1 2.84727 -6.56684 0.02 0 0 0 1 1
14324 1 3.04174 -6.75299 0.02 0 0 0 1.00001 1
14325 1 3.24252 -6.73295 0.02 0 0 0 1 1
14326 1 3.05655 -6.57075 0.02 0 0 0 1 1
14327 1 3.26292 -6.55006 0.02 0 0 0 1 1
13985 1 3.64303 -6.73735 0.02 0 0 0 1 1
13986 1 3.6528 -6.55221 0.02 0 0 0 1.00001 1
14328 1 3.44136 -6.75624 0.02 0 0 0 0.999999 1
14329 1 3.45826 -6.56449 0.02 0 0 0 1 1
13987 1 3.84028 -6.76508 0.02 0 0 0 1.00005 1
13989 1 3.85014 -6.57061 0.02 0 0 0 1.00007 1
13988 1 3.99974 -6.72331 0.02 0 0 0 1.00011 1
13990 1 4.02712 -6.52804 0.0169528 0.00215375 -5.92825e-05 2.44583e-05 1.00817 0
13991 1 4.12943 -6.76308 0.0105372 0.000375095 -0.000414772 -1.45331e-05 1.01308 0
13992 1 4.2786 -6.71554 0.0106362 0.00122274 -0.000105214 -2.31287e-05 1.00996 0
13993 1 4.19795 -6.53251 0.0159858 0.00346334 -9.30917e-05 -6.04602e-05 1.00879 0
13994 1 4.34764 -6.43534 0.0166938 0.00372275 2.99697e-06 1.92313e-05 1.00672 0
13995 1 4.40631 -6.60724 0.0131615 0.00236456 -2.05021e-06 2.05028e-05 1.00636 0
13996 1 4.50492 -6.7223 0.00843303 0.000867733 -7.05181e-06 -2.83501e-07 1.00523 0
13999 1 4.66939 -6.57004 0.0119011 0.00176852 3.26443e-06 9.88979e-06 1.00425 0
14001 1 4.85117 -6.53011 0.0114903 0.00145805 2.38921e-06 5.29995e-06 1.00376 0
14002 1 4.66782 -6.75738 0.0061925 0.00048542 -8.39142e-08 4.65388e-06 1.00427 0
13631 1 4.84928 -6.72458 0.00609259 0.000401874 3.09468e-06 3.49859e-06 1.00345 0
13634 1 5.02571 -6.62232 0.00808148 0.000695935 5.37638e-06 1.86131e-06 1.00313 0
13638 1 5.08622 -6.7778 0.00402604 4.42139e-05 5.49378e-06 -4.27151e-07 1.00323 0
13642 1 5.24064 -6.64959 0.0064183 0.00047421 7.83548e-06 -1.46852e-06 1.0027 0
13649 1 5.40962 -6.61738 0.00653907 0.000424992 8.58223e-06 -3.61651e-06 1.00251 0
13276 1 5.44917 -6.77194 0.00329499 9.36377e-05 6.97455e-06 -3.3486e-06 1.00256 0
13272 1 5.70079 -6.59747 0.00606576 0.000419891 7.85756e-06 -5.14543e-06 1.00227 0
13280 1 5.90414 -6.53879 0.00662024 0.000474724 5.69265e-06 -5.36541e-06 1.00214 0
12923 1 5.65174 -6.76114 0.00309686 6.90604e-05 6.56613e-06 -3.62164e-06 1.00242 0
12927 1 5.87157 -6.72483 0.00334133 0.000107745 5.49112e-06 -3.67176e-06 1.00204 0
12934 1 6.09527 -6.60958 0.0049675 0.000292511 3.11962e-06 -4.02741e-06 1.00199 0
12585 1 6.10346 -6.77249 0.00238545 6.42879e-05 2.83076e-06 -2.41596e-06 1.00205 0
12592 1 6.2987 -6.70734 0.00310727 0.000111908 4.94071e-07 -1.9837e-06 1.00196 0
12943 1 6.49408 -6.57117 0.0049648 0.000273982 -2.44366e-06 -1.95813e-06 1.00185 0
12248 1 6.49184 -6.73366 0.00254352 5.65008e-05 -9.67903e-07 -9.59224e-07 1.00187 0
12936 1 6.69613 -6.54687 0.00504791 0.000260119 -4.34483e-06 -1.13516e-06 1.00183 0
11919 1 6.67871 -6.755 0.00216142 1.90197e-05 -2.1479e-06 -2.50762e-07 1.00188 0
12254 1 6.85449 -6.61836 0.00387154 0.000172532 -4.29059e-06 -3.63089e-07 1.00175 0
11924 1 7.07186 -6.59416 0.00402381 0.000175509 -4.70877e-06 1.23984e-08 1.00176 0
11538 1 6.93635 -6.7732 0.00188062 1.36524e-05 -2.62293e-06 2.11456e-07 1.00185 0
11195 1 7.17629 -6.73448 0.00217327 3.3376e-05 -2.99709e-06 3.35399e-07 1.00178 0
12589 1 7.27722 -6.5383 0.00456721 0.000203506 -4.78112e-06 1.22198e-07 1.00175 0
11207 1 7.41977 -6.60683 0.00358633 0.000126753 -3.73515e-06 2.60672e-07 1.00172 0
10864 1 7.42133 -6.7776 0.00167286 2.10287e-05 -2.13149e-06 2.51575e-07 1.00179 0
10527 1 7.62632 -6.70066 0.00238997 6.11978e-05 -2.2544e-06 1.85248e-07 1.00172 0
12240 1 7.59961 -6.52544 0.00445636 0.000167494 -3.59023e-06 8.93959e-08 1.00174 0
11534 1 7.84779 -6.55719 0.00394346 0.000138222 -2.40064e-06 4.97503e-08 1.00168 0
10538 1 7.80018 -6.73278 0.00197693 2.1438e-05 -1.57084e-06 1.11582e-07 1.00172 0
10178 1 7.98149 -6.70378 0.00222513 2.01365e-05 -1.36716e-06 8.80372e-08 1.00169 0
10185 1 8.15388 -6.6939 0.00225217 9.74602e-06 -1.11415e-06 7.90701e-08 1.0016 0
3109 1 8.48977 -6.62474 0.0028932 6.36835e-05 -8.80098e-07 1.26689e-07 1.0016 0
3116 1 8.31425 -6.77049 0.00151745 -2.53612e-05 -7.2397e-07 1.15774e-07 1.00169 0
11550 1 8.33554 -6.53487 0.00391455 0.000107084 -1.22616e-06 1.00916e-07 1.00161 0
3119 1 8.58032 -6.76495 0.00150141 -1.27915e-05 -5.39101e-07 1.52642e-07 1.00165 0
3113 1 8.77631 -6.63492 0.00267877 5.94174e-05 -6.81266e-07 2.2453e-07 1.00151 0
3123 1 8.86452 -6.77339 0.00139318 -7.60824e-06 -4.47422e-07 1.90638e-07 1.00159 0
3117 1 9.01437 -6.59495 0.00301912 6.38971e-05 -6.62706e-07 3.054e-07 1.00151 0
3121 1 9.2676 -6.56561 0.00323465 6.28038e-05 -6.36652e-07 3.73083e-07 1.00149 0
3124 1 9.10276 -6.73354 0.00166731 1.12801e-06 -4.74306e-07 2.31217e-07 1.00155 0
3125 1 9.29957 -6.73823 0.00158652 -4.74951e-06 -4.57833e-07 2.32697e-07 1.00153 0
10521 1 9.48387 -6.54418 0.00338038 4.96056e-05 -5.97373e-07 4.26078e-07 1.00147 0
3126 1 9.49215 -6.72524 0.00167537 -1.25913e-05 -4.50071e-07 2.55257e-07 1.00151 0
10174 1 9.68841 -6.54081 0.00336549 3.7289e-05 -5.22112e-07 4.47786e-07 1.00144 0
3127 1 9.67783 -6.72875 0.00162484 -1.8749e-05 -4.13185e-07 2.58352e-07 1.00149 0
3105 1 9.8783 -6.54615 0.0032843 2.18714e-05 -4.40409e-07 4.46252e-07 1.0014 0
3128 1 9.86681 -6.73865 0.00152319 -1.92957e-05 -3.4444e-07 2.48881e-07 1.00146 0
3129 1 10.0591 -6.68657 0.00196985 -1.28996e-05 -3.23307e-07 2.7611e-07 1.00135 0
3131 1 10.2077 -6.7672 0.0013042 -2.48153e-05 -2.37401e-07 2.09955e-07 1.00139 0
3130 1 10.3846 -6.68805 0.00194881 -9.81126e-06 -1.91437e-07 2.58972e-07 1.00138 0
3132 1 10.5577 -6.69124 0.00188394 -2.73387e-05 -1.60445e-07 2.4159e-07 1.00131 0
3114 1 10.2532 -6.53129 0.00336119 2.05198e-05 -2.33381e-07 4.24466e-07 1.00135 0
3134 1 10.7066 -6.77013 0.00127528 -3.72779e-05 -1.16331e-07 1.70421e-07 1.00135 0
3133 1 10.8777 -6.62324 0.00246424 9.30291e-06 2.42105e-08 2.55959e-07 1.00127 0
3135 1 10.979 -6.72845 0.00154887 -6.66401e-06 2.37981e-08 1.62539e-07 1.00129 0
14330 1 1.79777 -6.39966 0.02 0 0 0 1 1
14331 1 1.78401 -6.21768 0.02 0 0 0 1 1
14332 1 1.99952 -6.38993 0.02 0 0 0 1 1
14334 1 2.01286 -6.21074 0.02 0 0 0 1 1
14333 1 2.20794 -6.39446 0.02 0 0 0 1 1
14335 1 2.22833 -6.20884 0.02 0 0 0 1 1
14337 1 2.41879 -6.41096 0.02 0 0 0 1 1
14336 1 2.43553 -6.22944 0.02 0 0 0 1 1
14338 1 2.64101 -6.39878 0.02 0 0 0 1 1
14339 1 2.64343 -6.21988 0.02 0 0 0 1 1
14340 1 2.85845 -6.38951 0.02 0 0 0 1 1
14341 1 2.85457 -6.20844 0.02 0 0 0 1 1
14342 1 3.0707 -6.38875 0.02 0 0 0 1 1
14343 1 3.0591 -6.20064 0.02 0 0 0 1 1
14345 1 3.25634 -6.1728 0.02 0 0 0 1 1
14344 1 3.27645 -6.36308 0.02 0 0 0 1 1
14008 1 3.65329 -6.17382 0.02 0 0 0 1.00001 1
14007 1 3.67394 -6.36404 0.02 0 0 0 1.00001 1
14346 1 3.47713 -6.37007 0.02 0 0 0 1 1
14347 1 3.4541 -6.17393 0.02 0 0 0 1 1
14009 1 3.86416 -6.37826 0.02 0 0 0 1.00006 1
14011 1 3.8522 -6.17653 0.02 0 0 0 1.00005 1
14010 1 4.03374 -6.33944 0.0175745 0.00245284 -5.84161e-06 1.61888e-05 1.00744 0
14012 1 4.03191 -6.15132 0.0180135 0.00241053 1.26815e-06 7.09854e-06 1.00642 0
13997 1 4.5185 -6.44569 0.0156244 0.00325738 9.92003e-08 1.25948e-05 1.00534 0
14013 1 4.20377 -6.31648 0.0175847 0.00398158 -3.84782e-06 1.089e-05 1.0073 0
14015 1 4.21283 -6.12121 0.018424 0.00410547 3.55898e-07 1.0122e-05 1.00611 0
14014 1 4.37998 -6.24585 0.018164 0.00441553 -4.26708e-07 1.3164e-05 1.00563 0
14016 1 4.39336 -6.05282 0.0189654 0.00470546 -1.57813e-06 7.96247e-06 1.00492 0
14017 1 4.54925 -6.21217 0.0179216 0.00428494 -2.44084e-06 8.7347e-06 1.00484 0
14019 1 4.57237 -6.00308 0.0189376 0.00481689 -2.3461e-06 5.2272e-06 1.00442 0
13998 1 4.66779 -6.36995 0.0157369 0.00311711 -1.30987e-06 8.32557e-06 1.00464 0
14000 1 4.82633 -6.33304 0.0151786 0.00276596 2.01169e-07 5.04422e-06 1.00426 0
14018 1 4.71599 -6.15193 0.0176606 0.00407512 -2.05986e-06 5.45694e-06 1.00441 0
14021 1 4.87759 -6.08292 0.017458 0.00393113 -1.11583e-06 2.04081e-06 1.00407 0
14005 1 5.03195 -6.4468 0.0119846 0.00154433 4.39059e-06 2.15351e-06 1.00364 0
14003 1 4.97047 -6.2518 0.0153292 0.00281208 1.40389e-06 2.07037e-06 1.00395 0
14004 1 5.13437 -6.2702 0.0141568 0.00229373 3.55563e-06 -6.46411e-07 1.00359 0
14022 1 5.05004 -6.04882 0.016955 0.00362876 4.34467e-08 -1.05518e-06 1.00373 0
14023 1 5.21718 -6.03436 0.0163199 0.0032907 1.40508e-06 -3.76442e-06 1.00342 0
13633 1 5.22275 -6.46743 0.0105199 0.00115832 6.99383e-06 -1.43478e-06 1.00317 0
14006 1 5.28627 -6.22007 0.0140029 0.00224992 4.27949e-06 -3.62191e-06 1.00333 0
13632 1 5.43634 -6.13454 0.0142821 0.00239752 4.0921e-06 -5.71104e-06 1.00309 0
13637 1 5.51151 -6.4869 0.00882561 0.00081688 8.3871e-06 -4.81161e-06 1.00264 0
13635 1 5.39275 -6.35915 0.0114998 0.00143254 6.91713e-06 -4.25875e-06 1.00303 0
13636 1 5.60518 -6.11514 0.013738 0.00220452 4.26395e-06 -6.85112e-06 1.00286 0
13641 1 5.60145 -6.30804 0.0112983 0.00139993 6.43763e-06 -6.21024e-06 1.00278 0
13646 1 5.72552 -6.42855 0.00898349 0.000861282 6.89929e-06 -6.17469e-06 1.0025 0
13639 1 5.76525 -6.15945 0.0125471 0.0017882 4.14547e-06 -7.14052e-06 1.00265 0