ITEM: TIMESTEP
87000
ITEM: NUMBER OF ATOMS
13355
ITEM: BOX BOUNDS ff ff pp
0.0000000000000000e+00 2.2000000000000000e+01
-1.0000000000000000e+01 1.0000000000000000e+01
-2.0000000000000000e-02 2.0000000000000000e-02
ITEM: ATOMS id type x y vx vy fx fy c_den c_phase
1501 2 2 -10 0 0 0 0 1 5
1535 2 2 -9.8 0 0 0 0 1 5
1569 2 2 -9.6 0 0 0 0 1 5
1502 2 2.2 -10 0 0 0 0 1 5
1503 2 2.4 -10 0 0 0 0 1 5
1536 2 2.2 -9.8 0 0 0 0 1 5
1537 2 2.4 -9.8 0 0 0 0 1 5
1570 2 2.2 -9.6 0 0 0 0 1 5
1571 2 2.4 -9.6 0 0 0 0 1 5
1504 2 2.6 -10 0 0 0 0 1 5
1505 2 2.8 -10 0 0 0 0 1 5
1538 2 2.6 -9.8 0 0 0 0 1 5
1539 2 2.8 -9.8 0 0 0 0 1 5
1572 2 2.6 -9.6 0 0 0 0 1 5
1573 2 2.8 -9.6 0 0 0 0 1 5
1506 2 3 -10 0 0 0 0 1 5
1540 2 3 -9.8 0 0 0 0 1 5
1574 2 3 -9.6 0 0 0 0 1 5
1507 2 3.2 -10 0 0 0 0 1 5
1541 2 3.2 -9.8 0 0 0 0 1 5
1575 2 3.2 -9.6 0 0 0 0 1 5
1508 2 3.4 -10 0 0 0 0 1 5
1542 2 3.4 -9.8 0 0 0 0 1 5
1576 2 3.4 -9.6 0 0 0 0 1 5
1509 2 3.6 -10 0 0 0 0 1 5
1543 2 3.6 -9.8 0 0 0 0 1 5
1577 2 3.6 -9.6 0 0 0 0 1 5
1510 2 3.8 -10 0 0 0 0 1 5
1544 2 3.8 -9.8 0 0 0 0 1 5
1578 2 3.8 -9.6 0 0 0 0 1 5
1511 2 4 -10 0 0 0 0 1 5
1512 2 4.2 -10 0 0 0 0 1 5
1545 2 4 -9.8 0 0 0 0 1 5
1546 2 4.2 -9.8 0 0 0 0 1 5
1579 2 4 -9.6 0 0 0 0 1 5
1580 2 4.2 -9.6 0 0 0 0 1 5
1513 2 4.4 -10 0 0 0 0 1 5
1514 2 4.6 -10 0 0 0 0 1 5
1547 2 4.4 -9.8 0 0 0 0 1 5
1548 2 4.6 -9.8 0 0 0 0 1 5
1581 2 4.4 -9.6 0 0 0 0 1 5
1582 2 4.6 -9.6 0 0 0 0 1 5
1515 2 4.8 -10 0 0 0 0 1 5
1516 2 5 -10 0 0 0 0 1 5
1549 2 4.8 -9.8 0 0 0 0 1 5
1550 2 5 -9.8 0 0 0 0 1 5
1583 2 4.8 -9.6 0 0 0 0 1 5
1584 2 5 -9.6 0 0 0 0 1 5
1517 2 5.2 -10 0 0 0 0 1 5
1518 2 5.4 -10 0 0 0 0 1 5
1551 2 5.2 -9.8 0 0 0 0 1 5
1552 2 5.4 -9.8 0 0 0 0 1 5
1585 2 5.2 -9.6 0 0 0 0 1 5
1586 2 5.4 -9.6 0 0 0 0 1 5
1519 2 5.6 -10 0 0 0 0 1 5
1553 2 5.6 -9.8 0 0 0 0 1 5
1587 2 5.6 -9.6 0 0 0 0 1 5
1520 2 5.8 -10 0 0 0 0 1 5
1554 2 5.8 -9.8 0 0 0 0 1 5
1588 2 5.8 -9.6 0 0 0 0 1 5
1521 2 6 -10 0 0 0 0 1 5
1555 2 6 -9.8 0 0 0 0 1 5
1589 2 6 -9.6 0 0 0 0 1 5
1522 2 6.2 -10 0 0 0 0 1 5
1523 2 6.4 -10 0 0 0 0 1 5
1556 2 6.2 -9.8 0 0 0 0 1 5
1557 2 6.4 -9.8 0 0 0 0 1 5
1590 2 6.2 -9.6 0 0 0 0 1 5
1591 2 6.4 -9.6 0 0 0 0 1 5
1524 2 6.6 -10 0 0 0 0 1 5
1525 2 6.8 -10 0 0 0 0 1 5
1558 2 6.6 -9.8 0 0 0 0 1 5
1559 2 6.8 -9.8 0 0 0 0 1 5
1592 2 6.6 -9.6 0 0 0 0 1 5
1593 2 6.8 -9.6 0 0 0 0 1 5
1526 2 7 -10 0 0 0 0 1 5
1527 2 7.2 -10 0 0 0 0 1 5
1560 2 7 -9.8 0 0 0 0 1 5
1561 2 7.2 -9.8 0 0 0 0 1 5
1594 2 7 -9.6 0 0 0 0 1 5
1595 2 7.2 -9.6 0 0 0 0 1 5
1603 2 2 -9.4 0 0 0 0 1 5
1637 2 2 -9.2 0 0 0 0 1 5
1604 2 2.2 -9.4 0 0 0 0 1 5
1605 2 2.4 -9.4 0 0 0 0 1 5
1638 2 2.2 -9.2 0 0 0 0 1 5
1639 2 2.4 -9.2 0 0 0 0 1 5
1606 2 2.6 -9.4 0 0 0 0 1 5
1607 2 2.8 -9.4 0 0 0 0 1 5
1640 2 2.6 -9.2 0 0 0 0 1 5
1641 2 2.8 -9.2 0 0 0 0 1 5
1608 2 3 -9.4 0 0 0 0 1 5
1642 2 3 -9.2 0 0 0 0 1 5
1609 2 3.2 -9.4 0 0 0 0 1 5
1643 2 3.2 -9.2 0 0 0 0 1 5
1610 2 3.4 -9.4 0 0 0 0 1 5
1644 2 3.4 -9.2 0 0 0 0 1 5
1611 2 3.6 -9.4 0 0 0 0 1 5
1645 2 3.6 -9.2 0 0 0 0 1 5
1612 2 3.8 -9.4 0 0 0 0 1 5
1646 2 3.8 -9.2 0 0 0 0 1 5
1613 2 4 -9.4 0 0 0 0 1 5
1614 2 4.2 -9.4 0 0 0 0 1 5
1647 2 4 -9.2 0 0 0 0 1 5
1648 2 4.2 -9.2 0 0 0 0 1 5
1615 2 4.4 -9.4 0 0 0 0 1 5
1616 2 4.6 -9.4 0 0 0 0 1 5
1649 2 4.4 -9.2 0 0 0 0 1 5
1650 2 4.6 -9.2 0 0 0 0 1 5
1617 2 4.8 -9.4 0 0 0 0 1 5
1618 2 5 -9.4 0 0 0 0 1 5
1651 2 4.8 -9.2 0 0 0 0 1 5
1652 2 5 -9.2 0 0 0 0 1 5
1619 2 5.2 -9.4 0 0 0 0 1 5
1620 2 5.4 -9.4 0 0 0 0 1 5
1653 2 5.2 -9.2 0 0 0 0 1 5
1654 2 5.4 -9.2 0 0 0 0 1 5
1621 2 5.6 -9.4 0 0 0 0 1 5
1655 2 5.6 -9.2 0 0 0 0 1 5
1622 2 5.8 -9.4 0 0 0 0 1 5
1656 2 5.8 -9.2 0 0 0 0 1 5
1623 2 6 -9.4 0 0 0 0 1 5
1657 2 6 -9.2 0 0 0 0 1 5
1624 2 6.2 -9.4 0 0 0 0 1 5
1625 2 6.4 -9.4 0 0 0 0 1 5
1658 2 6.2 -9.2 0 0 0 0 1 5
1659 2 6.4 -9.2 0 0 0 0 1 5
1626 2 6.6 -9.4 0 0 0 0 1 5
1627 2 6.8 -9.4 0 0 0 0 1 5
1660 2 6.6 -9.2 0 0 0 0 1 5
1661 2 6.8 -9.2 0 0 0 0 1 5
1628 2 7 -9.4 0 0 0 0 1 5
1629 2 7.2 -9.4 0 0 0 0 1 5
1662 2 7 -9.2 0 0 0 0 1 5
1663 2 7.2 -9.2 0 0 0 0 1 5
1671 2 2 -9 0 0 0 0 1 5
1705 2 2 -8.8 0 0 0 0 1 5
1672 2 2.2 -9 0 0 0 0 1 5
1673 2 2.4 -9 0 0 0 0 1 5
1706 2 2.2 -8.8 0 0 0 0 1 5
1707 2 2.4 -8.8 0 0 0 0 1 5
1674 2 2.6 -9 0 0 0 0 1 5
1675 2 2.8 -9 0 0 0 0 1 5
1708 2 2.6 -8.8 0 0 0 0 1 5
1709 2 2.8 -8.8 0 0 0 0 1 5
1676 2 3 -9 0 0 0 0 1 5
1710 2 3 -8.8 0 0 0 0 1 5
1677 2 3.2 -9 0 0 0 0 1 5
1711 2 3.2 -8.8 0 0 0 0 1 5
1678 2 3.4 -9 0 0 0 0 1 5
1712 2 3.4 -8.8 0 0 0 0 1 5
1679 2 3.6 -9 0 0 0 0 1 5
1713 2 3.6 -8.8 0 0 0 0 1 5
1680 2 3.8 -9 0 0 0 0 1 5
1714 2 3.8 -8.8 0 0 0 0 1 5
1681 2 4 -9 0 0 0 0 1 5
1682 2 4.2 -9 0 0 0 0 1 5
1715 2 4 -8.8 0 0 0 0 1 5
1716 2 4.2 -8.8 0 0 0 0 1 5
1683 2 4.4 -9 0 0 0 0 1 5
1684 2 4.6 -9 0 0 0 0 1 5
1717 2 4.4 -8.8 0 0 0 0 1 5
1718 2 4.6 -8.8 0 0 0 0 1 5
1685 2 4.8 -9 0 0 0 0 1 5
1686 2 5 -9 0 0 0 0 1 5
1719 2 4.8 -8.8 0 0 0 0 1 5
1720 2 5 -8.8 0 0 0 0 1 5
1687 2 5.2 -9 0 0 0 0 1 5
1688 2 5.4 -9 0 0 0 0 1 5
1721 2 5.2 -8.8 0 0 0 0 1 5
1722 2 5.4 -8.8 0 0 0 0 1 5
1689 2 5.6 -9 0 0 0 0 1 5
1723 2 5.6 -8.8 0 0 0 0 1 5
1690 2 5.8 -9 0 0 0 0 1 5
1724 2 5.8 -8.8 0 0 0 0 1 5
1691 2 6 -9 0 0 0 0 1 5
1725 2 6 -8.8 0 0 0 0 1 5
1692 2 6.2 -9 0 0 0 0 1 5
1693 2 6.4 -9 0 0 0 0 1 5
1726 2 6.2 -8.8 0 0 0 0 1 5
1727 2 6.4 -8.8 0 0 0 0 1 5
1694 2 6.6 -9 0 0 0 0 1 5
1695 2 6.8 -9 0 0 0 0 1 5
1728 2 6.6 -8.8 0 0 0 0 1 5
1729 2 6.8 -8.8 0 0 0 0 1 5
1696 2 7 -9 0 0 0 0 1 5
1697 2 7.2 -9 0 0 0 0 1 5
1730 2 7 -8.8 0 0 0 0 1 5
1731 2 7.2 -8.8 0 0 0 0 1 5
1739 2 2 -8.6 0 0 0 0 1 5
1773 2 2 -8.4 0 0 0 0 1 5
1740 2 2.2 -8.6 0 0 0 0 1 5
1741 2 2.4 -8.6 0 0 0 0 1 5
1774 2 2.2 -8.4 0 0 0 0 1 5
1775 2 2.4 -8.4 0 0 0 0 1 5
1742 2 2.6 -8.6 0 0 0 0 1 5
1743 2 2.8 -8.6 0 0 0 0 1 5
1776 2 2.6 -8.4 0 0 0 0 1 5
1777 2 2.8 -8.4 0 0 0 0 1 5
1744 2 3 -8.6 0 0 0 0 1 5
1778 2 3 -8.4 0 0 0 0 1 5
1745 2 3.2 -8.6 0 0 0 0 1 5
1779 2 3.2 -8.4 0 0 0 0 1 5
1746 2 3.4 -8.6 0 0 0 0 1 5
1780 2 3.4 -8.4 0 0 0 0 1 5
1747 2 3.6 -8.6 0 0 0 0 1 5
1781 2 3.6 -8.4 0 0 0 0 1 5
1748 2 3.8 -8.6 0 0 0 0 1 5
1782 2 3.8 -8.4 0 0 0 0 1 5
1749 2 4 -8.6 0 0 0 0 1 5
1750 2 4.2 -8.6 0 0 0 0 1 5
1783 2 4 -8.4 0 0 0 0 1 5
1784 2 4.2 -8.4 0 0 0 0 1 5
1751 2 4.4 -8.6 0 0 0 0 1 5
1752 2 4.6 -8.6 0 0 0 0 1 5
1785 2 4.4 -8.4 0 0 0 0 1 5
1786 2 4.6 -8.4 0 0 0 0 1 5
1753 2 4.8 -8.6 0 0 0 0 1 5
1754 2 5 -8.6 0 0 0 0 1 5
1787 2 4.8 -8.4 0 0 0 0 1 5
1788 2 5 -8.4 0 0 0 0 1 5
1755 2 5.2 -8.6 0 0 0 0 1 5
1756 2 5.4 -8.6 0 0 0 0 1 5
1789 2 5.2 -8.4 0 0 0 0 1 5
1790 2 5.4 -8.4 0 0 0 0 1 5
1757 2 5.6 -8.6 0 0 0 0 1 5
1791 2 5.6 -8.4 0 0 0 0 1 5
1758 2 5.8 -8.6 0 0 0 0 1 5
1792 2 5.8 -8.4 0 0 0 0 1 5
1759 2 6 -8.6 0 0 0 0 1 5
1793 2 6 -8.4 0 0 0 0 1 5
1760 2 6.2 -8.6 0 0 0 0 1 5
1761 2 6.4 -8.6 0 0 0 0 1 5
1794 2 6.2 -8.4 0 0 0 0 1 5
1795 2 6.4 -8.4 0 0 0 0 1 5
1762 2 6.6 -8.6 0 0 0 0 1 5
1763 2 6.8 -8.6 0 0 0 0 1 5
1796 2 6.6 -8.4 0 0 0 0 1 5
1797 2 6.8 -8.4 0 0 0 0 1 5
1764 2 7 -8.6 0 0 0 0 1 5
1765 2 7.2 -8.6 0 0 0 0 1 5
1798 2 7 -8.4 0 0 0 0 1 5
1799 2 7.2 -8.4 0 0 0 0 1 5
1807 2 2 -8.2 0 0 0 0 1 5
1841 2 2 -8 0 0 0 0 1 5
1808 2 2.2 -8.2 0 0 0 0 1 5
1809 2 2.4 -8.2 0 0 0 0 1 5
1842 2 2.2 -8 0 0 0 0 1 5
1843 2 2.4 -8 0 0 0 0 1 5
1810 2 2.6 -8.2 0 0 0 0 1 5
1811 2 2.8 -8.2 0 0 0 0 1 5
1844 2 2.6 -8 0 0 0 0 1 5
1845 2 2.8 -8 0 0 0 0 1 5
1812 2 3 -8.2 0 0 0 0 1 5
1846 2 3 -8 0 0 0 0 1 5
1813 2 3.2 -8.2 0 0 0 0 1 5
1847 2 3.2 -8 0 0 0 0 1 5
1814 2 3.4 -8.2 0 0 0 0 1 5
1848 2 3.4 -8 0 0 0 0 1 5
1815 2 3.6 -8.2 0 0 0 0 1 5
1849 2 3.6 -8 0 0 0 0 1 5
1816 2 3.8 -8.2 0 0 0 0 1 5
1850 2 3.8 -8 0 0 0 0 1 5
1817 2 4 -8.2 0 0 0 0 1 5
1818 2 4.2 -8.2 0 0 0 0 1 5
1851 2 4 -8 0 0 0 0 1 5
1852 2 4.2 -8 0 0 0 0 1 5
1819 2 4.4 -8.2 0 0 0 0 1 5
1820 2 4.6 -8.2 0 0 0 0 1 5
1853 2 4.4 -8 0 0 0 0 1 5
1854 2 4.6 -8 0 0 0 0 1 5
1821 2 4.8 -8.2 0 0 0 0 1 5
1822 2 5 -8.2 0 0 0 0 1 5
1855 2 4.8 -8 0 0 0 0 1 5
1856 2 5 -8 0 0 0 0 1 5
1823 2 5.2 -8.2 0 0 0 0 1 5
1824 2 5.4 -8.2 0 0 0 0 1 5
1857 2 5.2 -8 0 0 0 0 1 5
1858 2 5.4 -8 0 0 0 0 1 5
1825 2 5.6 -8.2 0 0 0 0 1 5
1859 2 5.6 -8 0 0 0 0 1 5
1826 2 5.8 -8.2 0 0 0 0 1 5
1860 2 5.8 -8 0 0 0 0 1 5
1827 2 6 -8.2 0 0 0 0 1 5
1861 2 6 -8 0 0 0 0 1 5
1828 2 6.2 -8.2 0 0 0 0 1 5
1829 2 6.4 -8.2 0 0 0 0 1 5
1862 2 6.2 -8 0 0 0 0 1 5
1863 2 6.4 -8 0 0 0 0 1 5
1830 2 6.6 -8.2 0 0 0 0 1 5
1831 2 6.8 -8.2 0 0 0 0 1 5
1864 2 6.6 -8 0 0 0 0 1 5
1865 2 6.8 -8 0 0 0 0 1 5
1832 2 7 -8.2 0 0 0 0 1 5
1833 2 7.2 -8.2 0 0 0 0 1 5
1866 2 7 -8 0 0 0 0 1 5
1867 2 7.2 -8 0 0 0 0 1 5
1875 2 2 -7.8 0 0 0 0 1 5
1909 2 2 -7.6 0 0 0 0 1 5
1943 2 2 -7.4 0 0 0 0 0.999196 5
1876 2 2.2 -7.8 0 0 0 0 1 5
1877 2 2.4 -7.8 0 0 0 0 1 5
1910 2 2.2 -7.6 0 0 0 0 1 5
1911 2 2.4 -7.6 0 0 0 0 1 5
1944 2 2.2 -7.4 0 0 0 0 0.996444 5
1945 2 2.4 -7.4 0 0 0 0 1.00074 5
1878 2 2.6 -7.8 0 0 0 0 1 5
1879 2 2.8 -7.8 0 0 0 0 1 5
1912 2 2.6 -7.6 0 0 0 0 1 5
1913 2 2.8 -7.6 0 0 0 0 1 5
1946 2 2.6 -7.4 0 0 0 0 0.999607 5
1947 2 2.8 -7.4 0 0 0 0 1.00089 5
1880 2 3 -7.8 0 0 0 0 1 5
1914 2 3 -7.6 0 0 0 0 1 5
1948 2 3 -7.4 0 0 0 0 1.00067 5
1881 2 3.2 -7.8 0 0 0 0 1 5
1915 2 3.2 -7.6 0 0 0 0 1 5
1949 2 3.2 -7.4 0 0 0 0 0.998263 5
1882 2 3.4 -7.8 0 0 0 0 1 5
1916 2 3.4 -7.6 0 0 0 0 1 5
1950 2 3.4 -7.4 0 0 0 0 0.999144 5
1883 2 3.6 -7.8 0 0 0 0 1 5
1917 2 3.6 -7.6 0 0 0 0 1 5
1951 2 3.6 -7.4 0 0 0 0 1.00358 5
1884 2 3.8 -7.8 0 0 0 0 1 5
1918 2 3.8 -7.6 0 0 0 0 1 5
1952 2 3.8 -7.4 0 0 0 0 1.05918 5
1885 2 4 -7.8 0 0 0 0 1 5
1886 2 4.2 -7.8 0 0 0 0 1 5
1919 2 4 -7.6 0 0 0 0 1 5
1920 2 4.2 -7.6 0 0 0 0 1 5
1953 2 4 -7.4 0 0 0 0 1.04201 5
1954 2 4.2 -7.4 0 0 0 0 1.02468 5
1887 2 4.4 -7.8 0 0 0 0 1 5
1888 2 4.6 -7.8 0 0 0 0 1 5
1921 2 4.4 -7.6 0 0 0 0 1 5
1922 2 4.6 -7.6 0 0 0 0 1 5
1955 2 4.4 -7.4 0 0 0 0 1.04486 5
1956 2 4.6 -7.4 0 0 0 0 1.04389 5
1889 2 4.8 -7.8 0 0 0 0 1 5
1890 2 5 -7.8 0 0 0 0 1 5
1923 2 4.8 -7.6 0 0 0 0 1 5
1924 2 5 -7.6 0 0 0 0 1 5
1957 2 4.8 -7.4 0 0 0 0 1.04282 5
1958 2 5 -7.4 0 0 0 0 1.04246 5
1891 2 5.2 -7.8 0 0 0 0 1 5
1892 2 5.4 -7.8 0 0 0 0 1 5
1925 2 5.2 -7.6 0 0 0 0 1 5
1926 2 5.4 -7.6 0 0 0 0 1 5
1959 2 5.2 -7.4 0 0 0 0 1.04233 5
1960 2 5.4 -7.4 0 0 0 0 1.04247 5
1893 2 5.6 -7.8 0 0 0 0 1 5
1927 2 5.6 -7.6 0 0 0 0 1 5
1961 2 5.6 -7.4 0 0 0 0 1.04245 5
1894 2 5.8 -7.8 0 0 0 0 1 5
1928 2 5.8 -7.6 0 0 0 0 1 5
1962 2 5.8 -7.4 0 0 0 0 1.04248 5
1895 2 6 -7.8 0 0 0 0 1 5
1929 2 6 -7.6 0 0 0 0 1 5
1963 2 6 -7.4 0 0 0 0 1.04241 5
1896 2 6.2 -7.8 0 0 0 0 1 5
1897 2 6.4 -7.8 0 0 0 0 1 5
1930 2 6.2 -7.6 0 0 0 0 1 5
1931 2 6.4 -7.6 0 0 0 0 1 5
1964 2 6.2 -7.4 0 0 0 0 1.04275 5
1965 2 6.4 -7.4 0 0 0 0 1.04292 5
1898 2 6.6 -7.8 0 0 0 0 1 5
1899 2 6.8 -7.8 0 0 0 0 1 5
1932 2 6.6 -7.6 0 0 0 0 1 5
1933 2 6.8 -7.6 0 0 0 0 1 5
1966 2 6.6 -7.4 0 0 0 0 1.043 5
1967 2 6.8 -7.4 0 0 0 0 1.04296 5
1900 2 7 -7.8 0 0 0 0 1 5
1901 2 7.2 -7.8 0 0 0 0 1 5
1934 2 7 -7.6 0 0 0 0 1 5
1935 2 7.2 -7.6 0 0 0 0 1 5
1968 2 7 -7.4 0 0 0 0 1.04307 5
1969 2 7.2 -7.4 0 0 0 0 1.04297 5
1977 2 2 -7.2 0 0 0 0 1.00059 5
2011 2 2 -7 0 0 0 0 1.00105 5
1978 2 2.2 -7.2 0 0 0 0 0.997097 5
1979 2 2.4 -7.2 0 0 0 0 1.00024 5
2012 2 2.2 -7 0 0 0 0 0.998365 5
2013 2 2.4 -7 0 0 0 0 0.999833 5
1980 2 2.6 -7.2 0 0 0 0 1.00062 5
1981 2 2.8 -7.2 0 0 0 0 1.00081 5
2014 2 2.6 -7 0 0 0 0 1.00025 5
2015 2 2.8 -7 0 0 0 0 1.00022 5
1982 2 3 -7.2 0 0 0 0 1.00006 5
2016 2 3 -7 0 0 0 0 0.999924 5
1983 2 3.2 -7.2 0 0 0 0 0.998227 5
2017 2 3.2 -7 0 0 0 0 0.999202 5
1984 2 3.4 -7.2 0 0 0 0 0.999689 5
2018 2 3.4 -7 0 0 0 0 1.00019 5
1985 2 3.6 -7.2 0 0 0 0 1.00803 5
2019 2 3.6 -7 0 0 0 0 1.00642 5
1986 2 3.8 -7.2 0 0 0 0 1.03993 5
2020 2 3.8 -7 0 0 0 0 1.02826 5
1987 2 4 -7.2 0 0 0 0 1.03843 5
1988 2 4.2 -7.2 0 0 0 0 1.03158 5
2021 2 4 -7 0 0 0 0 1.03417 5
2022 2 4.2 -7 0 0 0 0 1.03736 5
1989 2 4.4 -7.2 0 0 0 0 1.04552 5
1990 2 4.6 -7.2 0 0 0 0 1.04533 5
2023 2 4.4 -7 0 0 0 0 1.04805 5
2024 2 4.6 -7 0 0 0 0 1.04678 5
1991 2 4.8 -7.2 0 0 0 0 1.0441 5
1992 2 5 -7.2 0 0 0 0 1.04352 5
2025 2 4.8 -7 0 0 0 0 1.04503 5
2026 2 5 -7 0 0 0 0 1.0444 5
1993 2 5.2 -7.2 0 0 0 0 1.04351 5
1994 2 5.4 -7.2 0 0 0 0 1.04358 5
2027 2 5.2 -7 0 0 0 0 1.04443 5
2028 2 5.4 -7 0 0 0 0 1.04443 5
1995 2 5.6 -7.2 0 0 0 0 1.04361 5
2029 2 5.6 -7 0 0 0 0 1.04441 5
1996 2 5.8 -7.2 0 0 0 0 1.04359 5
2030 2 5.8 -7 0 0 0 0 1.04438 5
1997 2 6 -7.2 0 0 0 0 1.04359 5
2031 2 6 -7 0 0 0 0 1.04433 5
1998 2 6.2 -7.2 0 0 0 0 1.04363 5
1999 2 6.4 -7.2 0 0 0 0 1.04381 5
2032 2 6.2 -7 0 0 0 0 1.04434 5
2033 2 6.4 -7 0 0 0 0 1.04456 5
2000 2 6.6 -7.2 0 0 0 0 1.04395 5
2001 2 6.8 -7.2 0 0 0 0 1.04399 5
2034 2 6.6 -7 0 0 0 0 1.04471 5
2035 2 6.8 -7 0 0 0 0 1.04475 5
2002 2 7 -7.2 0 0 0 0 1.04398 5
2003 2 7.2 -7.2 0 0 0 0 1.04397 5
2036 2 7 -7 0 0 0 0 1.04474 5
2037 2 7.2 -7 0 0 0 0 1.04477 5
16067 1 0.985728 -6.74459 0.02 0 0 0 1 2
16068 1 1.18756 -6.76349 0.02 0 0 0 1 2
16069 1 1.01947 -6.57221 0.02 0 0 0 1 2
16070 1 1.22426 -6.57855 0.02 0 -8.26293e-13 -2.93405e-13 1 2
16071 1 1.40071 -6.76677 0.02 0 -1.27033e-06 -8.9569e-07 1 2
16072 1 1.60499 -6.74921 0.02 0 -0.000277473 -0.000102421 1 2
16073 1 1.42268 -6.57855 0.02 0 1.85743e-09 3.4851e-08 1 2
16074 1 1.61786 -6.55859 0.02 0 -2.12574e-06 1.78911e-05 1 2
16075 1 1.7949 -6.7407 0.02 0 -0.00207898 -0.000651711 1 2
16076 1 1.98986 -6.76847 0.02 0 -0.00426895 -0.000786358 1 2
16077 1 1.81975 -6.56058 0.02 0 -3.75638e-05 0.00022614 1 2
16078 1 2.01268 -6.576 0.02 0 -8.02058e-05 0.000440487 1 2
16079 1 2.19368 -6.74592 0.02 0 -0.00291455 -0.000465947 1 2
16080 1 2.39166 -6.74089 0.02 0 -0.00265541 -0.000452417 1 2
16081 1 2.19751 -6.55361 0.02 0 0.000168662 0.000391073 1 2
16082 1 2.38954 -6.56055 0.02 0 0.000194974 0.000387759 1 2
15600 1 2.82318 -6.58073 0.02 0 5.39925e-05 0.000516528 1 2
16083 1 2.58797 -6.75367 0.02 0 -0.00289529 -0.00047093 1 2
16084 1 2.79076 -6.75368 0.02 0 -0.00288097 -0.000598341 1 2
16085 1 2.60085 -6.5699 0.02 0 0.000135714 0.000419885 1 2
15599 1 3.01134 -6.76992 0.02 0 -0.00306519 -0.000521466 1 2
15601 1 3.03438 -6.58688 0.02 0 -7.20762e-05 0.000393 1 2
15602 1 3.23028 -6.75274 0.02 0 -0.0027581 -0.000404972 1 2
15604 1 3.23801 -6.56746 0.02 0 5.59942e-05 0.000312436 1 2
15603 1 3.4396 -6.73947 0.02 0 -0.00273684 -0.000171728 1 2
15605 1 3.43634 -6.55685 0.02 0 0.000133734 0.000340734 1 2
15754 1 3.63809 -6.74787 0.02 0 -0.00459637 0.000444367 1 2
15756 1 3.6365 -6.55697 0.02 0 -0.00116616 0.000449332 1 2
15755 1 3.83089 -6.7403 0.02 0 -0.00905947 -9.28325e-05 1 2
15757 1 3.83991 -6.5555 0.02 0 -0.00495498 0.00046049 1 2
15758 1 4.00023 -6.75215 0.0164037 4.9551e-05 -0.0143853 0.000198204 1.02839 0
15760 1 3.99978 -6.56405 0.02 0 -0.00514292 0.000865863 1.03463 2
15759 1 4.11381 -6.71635 0.00817341 0.0021198 -0.000165974 0.000263952 1.04998 0
15761 1 4.16667 -6.52963 0.0106759 0.00333438 -0.000675444 0.000203063 1.05354 0
15762 1 4.22353 -6.6961 0.00729837 0.000984927 -2.39302e-05 0.000251421 1.05499 0
15764 1 4.28182 -6.49333 0.0105005 0.00341217 -0.000225224 0.000109851 1.05342 0
15763 1 4.32365 -6.6751 0.00753087 0.00070576 2.76828e-05 6.29295e-05 1.05262 0
15347 1 4.43804 -6.59355 0.00987385 0.00175342 3.72541e-05 2.06072e-05 1.048 0
15363 1 3.99971 -6.63935 0.02 0 -0.00540896 0.000778758 1.03549 2
15362 1 4.00039 -6.85161 0.0079562 -0.000776072 -0.0057669 0.000118743 1.047 0
15348 1 4.4375 -6.7684 0.00503867 -0.000734655 2.18633e-05 -8.00972e-05 1.05102 0
15349 1 4.66121 -6.539 0.00971022 0.00193265 1.77109e-05 -9.10919e-06 1.04442 0
15353 1 4.58297 -6.67057 0.00718382 0.000894529 2.04141e-05 -1.54929e-05 1.04532 0
15354 1 4.81433 -6.50202 0.00917315 0.00182855 1.18391e-05 -1.45457e-05 1.04435 0
15357 1 4.77128 -6.65149 0.00645138 0.000942375 3.81189e-06 -1.47335e-05 1.04406 0
14630 1 4.63903 -6.80883 0.00381359 -0.0005798 -3.40785e-06 -2.01464e-05 1.04808 0
15361 1 4.93626 -6.56479 0.0072259 0.00120474 1.17063e-05 -1.4141e-05 1.04411 0
15011 1 4.83541 -6.78511 0.00328011 -0.000310977 1.15959e-06 -9.87513e-06 1.04631 0
15365 1 5.09478 -6.56169 0.00638984 0.00101544 1.56667e-05 -1.45475e-05 1.04402 0
15366 1 5.2253 -6.49878 0.00680836 0.00112485 1.58058e-05 -1.70191e-05 1.04398 0
15019 1 4.98246 -6.69137 0.00429791 0.000437717 9.78575e-06 -1.06706e-05 1.04408 0
14789 1 5.08571 -6.767 0.00256509 -0.000361946 9.65426e-06 -8.58014e-06 1.04565 0
15015 1 5.26959 -6.6317 0.00438713 0.000536402 1.39911e-05 -1.26287e-05 1.0437 0
14793 1 5.2335 -6.7852 0.00204781 -0.000548188 1.01329e-05 -7.63476e-06 1.04604 0
15023 1 5.4157 -6.58057 0.00485779 0.000682663 1.22517e-05 -1.44612e-05 1.04345 0
15026 1 5.54147 -6.60136 0.00417718 0.000575599 9.00721e-06 -1.32297e-05 1.04332 0
14324 1 5.40341 -6.75713 0.00213434 -0.000263324 9.42925e-06 -8.15061e-06 1.04504 0
14317 1 5.66648 -6.64424 0.00325002 0.000415382 5.45774e-06 -1.04748e-05 1.04333 0
13971 1 5.56627 -6.80107 0.00151805 -0.000607023 6.15257e-06 -5.84814e-06 1.046 0
13969 1 5.82814 -6.5882 0.0037966 0.000565938 7.56443e-07 -1.06069e-05 1.04319 0
14790 1 5.95796 -6.62134 0.00314968 0.000445721 -2.40582e-06 -7.86689e-06 1.04325 0
13644 1 5.76191 -6.76531 0.00164813 -0.000294485 3.00687e-06 -5.46819e-06 1.045 0
13274 1 5.92439 -6.79806 0.00128193 -0.000609793 2.14226e-07 -2.81472e-06 1.0459 0
14320 1 6.10677 -6.57706 0.00356165 0.000526059 -6.91301e-06 -6.94835e-06 1.04322 0
13289 1 6.0869 -6.73746 0.00170233 -0.00012359 -3.23667e-06 -3.16983e-06 1.04445 0
13979 1 6.24137 -6.57949 0.00340124 0.000508444 -9.81911e-06 -5.15608e-06 1.04324 0
13975 1 6.36315 -6.58239 0.00329089 0.000491423 -1.1777e-05 -3.65392e-06 1.04327 0
12949 1 6.2319 -6.77249 0.00129107 -0.000425744 -4.68851e-06 -8.33192e-07 1.04535 0
13983 1 6.47906 -6.61423 0.00284603 0.000416152 -1.19143e-05 -2.07253e-06 1.04334 0
12617 1 6.39233 -6.78348 0.00117236 -0.000484884 -6.07543e-06 4.59836e-07 1.04565 0
13641 1 6.60036 -6.58945 0.00308521 0.000442598 -1.34575e-05 -1.53134e-06 1.04332 0
13276 1 6.71557 -6.63754 0.00247125 0.000323319 -1.17492e-05 -5.05374e-07 1.04345 0
11882 1 6.57692 -6.79193 0.00111537 -0.000510247 -6.91879e-06 1.32393e-06 1.04581 0
12936 1 6.85437 -6.63272 0.00248226 0.000311381 -1.15768e-05 -2.98209e-07 1.04345 0
11552 1 6.78024 -6.80417 0.00102087 -0.000600052 -6.67137e-06 1.59128e-06 1.04605 0
12953 1 6.99633 -6.61678 0.00262866 0.000317832 -1.13057e-05 -3.80431e-07 1.04342 0
11164 1 6.98481 -6.78512 0.00110899 -0.000478663 -6.49331e-06 1.168e-06 1.04565 0
12604 1 7.13785 -6.61555 0.00261699 0.000296518 -1.02084e-05 -6.26356e-07 1.04345 0
12941 1 7.27727 -6.61946 0.00257297 0.000264106 -8.74926e-06 -1.03107e-06 1.0435 0
11323 1 7.17221 -6.79649 0.00103182 -0.000608018 -5.31222e-06 9.3527e-07 1.04597 0
16086 1 0.977463 -6.40575 0.02 0 0 0 1 2
16087 1 1.20148 -6.39862 0.02 0 0 0 1 2
16088 1 0.998846 -6.22649 0.02 0 0 0 1 2
16089 1 1.21696 -6.21801 0.02 0 0 0 1 2
16090 1 1.40749 -6.38915 0.02 0 1.81772e-11 1.19999e-09 1 2
16091 1 1.60551 -6.36834 0.02 0 3.74264e-09 8.38367e-08 1 2
16092 1 1.42266 -6.18855 0.02 0 1.28047e-12 2.95098e-11 1 2
16093 1 1.62627 -6.18143 0.02 0 2.33568e-09 5.64772e-08 1 2
16094 1 1.81061 -6.38259 0.02 0 6.32049e-06 2.64328e-05 1 2
16095 1 2.02428 -6.38716 0.02 0 5.34008e-05 0.000117638 1 2
16096 1 1.83347 -6.20222 0.02 0 2.18314e-07 2.22307e-06 1 2
16097 1 2.0422 -6.20607 0.02 0 3.30219e-06 1.15535e-05 1 2
16098 1 2.24448 -6.37166 0.02 0 9.28226e-05 0.000167285 1 2
16099 1 2.45685 -6.38884 0.02 0 0.000117804 0.000210178 1 2
16100 1 2.25084 -6.19175 0.02 0 6.96829e-06 1.80164e-05 1 2
16101 1 2.46961 -6.20482 0.02 0 9.43231e-06 2.22505e-05 1 2
15606 1 2.8587 -6.40681 0.02 0 0.000115732 0.000217259 1 2
15607 1 2.88518 -6.22242 0.02 0 9.92514e-06 2.48596e-05 1 2
16102 1 2.65976 -6.38994 0.02 0 0.000108069 0.000203183 1 2
16103 1 2.68175 -6.19657 0.02 0 6.97563e-06 1.7623e-05 1 2
15608 1 3.06334 -6.40373 0.02 0 0.000112354 0.000188965 1 2
15609 1 3.09303 -6.21248 0.02 0 8.78551e-06 2.17945e-05 1 2
15610 1 3.2666 -6.37967 0.02 0 9.12799e-05 0.000147709 1 2
15611 1 3.30528 -6.19565 0.02 0 6.84334e-06 1.73827e-05 1 2
15769 1 3.52365 -6.19087 0.02 0 -0.000158705 2.11579e-05 1 2
15770 1 3.47236 -6.37223 0.02 0 2.54012e-05 0.00014729 1 2
15766 1 3.67787 -6.36827 0.02 0 -0.00176402 0.000241266 1 2
15768 1 3.73921 -6.18388 0.02 0 -0.00258215 0.000265953 1 2
15767 1 3.88363 -6.37473 0.02 0 -0.00647346 0.000391545 1 2
15771 1 3.94465 -6.19169 0.02 0 -0.00800526 0.00113914 1 2
15772 1 4.0366 -6.33898 0.00976473 0.00217957 -0.000460197 -0.000119937 1.04169 0
15774 1 4.04948 -6.19506 0.00991646 0.00118992 0.000155834 -0.000204327 1.04126 0
15765 1 4.39339 -6.41515 0.0120586 0.00326268 -3.48893e-05 1.71087e-05 1.04888 0
15350 1 4.52993 -6.4794 0.0114415 0.00257964 3.09679e-05 2.97238e-06 1.04564 0
15773 1 3.99946 -6.37469 0.02 0 -0.00520344 0.000793783 1.03562 2
15775 1 3.99976 -6.11758 0.02 0 -0.00811793 0.0013254 1.03332 2
15776 1 4.22043 -6.32768 0.00952813 0.0037768 -0.000248725 -0.000101216 1.05317 0
15778 1 4.22257 -6.17808 0.00918668 0.00316795 8.64481e-05 -0.000120446 1.05212 0
15777 1 3.99973 -6.47342 0.02 0 -0.0051165 0.000805306 1.03649 2
15352 1 4.51972 -6.28819 0.0129434 0.00345659 1.5899e-05 2.65929e-06 1.04549 0
15369 1 4.36834 -6.26028 0.0119691 0.00375886 -1.18048e-05 -1.00427e-05 1.04892 0
15779 1 4.34364 -6.0774 0.0112874 0.00353916 7.18664e-05 -1.49641e-05 1.04927 0
15371 1 4.47638 -6.12742 0.0132408 0.00374805 7.23495e-06 -2.38149e-06 1.04572 0
15351 1 4.63943 -6.3575 0.0120581 0.00296287 2.01784e-05 -8.47425e-06 1.04479 0
15355 1 4.77953 -6.35971 0.0111634 0.00260586 1.34868e-05 -1.45056e-05 1.04479 0
15370 1 4.61834 -6.12616 0.0132848 0.00375544 6.64878e-06 -1.02962e-05 1.04467 0
15374 1 4.73053 -6.20418 0.0125464 0.00337326 1.17785e-05 -1.44232e-05 1.04487 0
15360 1 4.89202 -6.22012 0.011588 0.00295514 1.34266e-05 -1.77863e-05 1.04518 0
15373 1 4.82898 -6.06662 0.0126632 0.00368272 1.11237e-05 -1.73542e-05 1.04506 0
15358 1 5.05646 -6.40976 0.00884293 0.00173926 1.61138e-05 -1.78896e-05 1.04465 0
15356 1 4.93534 -6.36317 0.0101013 0.00221001 1.4636e-05 -1.71957e-05 1.04492 0
15377 1 4.99898 -6.1085 0.0117431 0.00319481 1.2415e-05 -2.02063e-05 1.04523 0
15359 1 5.08767 -6.21681 0.010628 0.00251761 1.40237e-05 -2.07236e-05 1.04507 0
15367 1 5.18047 -6.32574 0.00917964 0.00187185 1.49195e-05 -2.0233e-05 1.04467 0
15381 1 5.22647 -6.13028 0.0106982 0.00260289 1.09438e-05 -2.29259e-05 1.04483 0
15028 1 5.31019 -6.30906 0.00878496 0.0017312 1.25112e-05 -2.10465e-05 1.04442 0
15386 1 5.35511 -6.07634 0.0106055 0.00257264 7.98232e-06 -2.38242e-05 1.04458 0
15014 1 5.38645 -6.44018 0.00696281 0.00118185 1.2415e-05 -1.8445e-05 1.04387 0
15364 1 5.42709 -6.20737 0.00930598 0.001946 8.27732e-06 -2.22996e-05 1.04438 0
15012 1 5.57131 -6.10725 0.00964623 0.00209339 3.61549e-06 -2.26549e-05 1.04429 0
15013 1 5.50895 -6.3273 0.00782836 0.00143185 7.70051e-06 -2.00417e-05 1.04403 0
15016 1 5.6388 -6.23141 0.00835824 0.00159459 2.73643e-06 -2.02899e-05 1.0441 0
15018 1 5.58973 -6.43936 0.0062877 0.00103829 6.56468e-06 -1.71573e-05 1.0436 0
14631 1 5.72816 -6.48902 0.00530339 0.000846684 2.6661e-06 -1.44506e-05 1.04336 0
15017 1 5.79165 -6.17176 0.00845908 0.00160243 -2.1297e-06 -1.91634e-05 1.04408 0
15021 1 5.92989 -6.14243 0.00837563 0.00153582 -6.03613e-06 -1.74012e-05 1.04405 0
15022 1 5.75001 -6.3294 0.00705989 0.00121587 1.54909e-07 -1.72585e-05 1.04381 0
15025 1 6.00843 -6.25524 0.00718983 0.00118994 -8.17456e-06 -1.42997e-05 1.04388 0
15027 1 5.88158 -6.36824 0.00632603 0.00103375 -3.66438e-06 -1.4521e-05 1.04364 0
14635 1 5.98001 -6.45602 0.00517563 0.000813039 -5.68795e-06 -1.13174e-05 1.04338 0
14629 1 6.14761 -6.24989 0.00698847 0.0010976 -1.17719e-05 -1.1902e-05 1.04385 0
14638 1 6.12683 -6.41676 0.00536474 0.000816363 -1.01619e-05 -9.58203e-06 1.04346 0
15029 1 6.25434 -6.14367 0.00776612 0.00122897 -1.38944e-05 -1.19404e-05 1.04396 0
14641 1 6.36595 -6.2362 0.00681046 0.000979922 -1.60733e-05 -8.73466e-06 1.04386 0
14634 1 6.26863 -6.37636 0.00559313 0.000817176 -1.37529e-05 -7.97667e-06 1.04356 0
14633 1 6.51258 -6.1245 0.00761241 0.00106502 -1.76226e-05 -8.63066e-06 1.04398 0
14312 1 6.40677 -6.41805 0.00503537 0.000715748 -1.55765e-05 -5.48864e-06 1.04348 0
14639 1 6.52305 -6.28128 0.00624276 0.000827442 -1.78356e-05 -6.07006e-06 1.0438 0
14313 1 6.56653 -6.42766 0.00482065 0.000650475 -1.68781e-05 -3.68882e-06 1.04348 0
14791 1 6.6724 -6.20055 0.00683848 0.000844812 -1.87746e-05 -5.85739e-06 1.04394 0
14322 1 6.84955 -6.19459 0.00677629 0.000747306 -1.85298e-05 -4.83013e-06 1.04396 0
14316 1 6.73379 -6.32615 0.00567992 0.000675942 -1.82295e-05 -3.73921e-06 1.04374 0
14328 1 6.73428 -6.46691 0.00433517 0.000558945 -1.65441e-05 -2.11873e-06 1.04343 0
14314 1 7.01524 -6.16952 0.00690509 0.000680313 -1.76641e-05 -4.66383e-06 1.044 0
14325 1 6.93409 -6.32362 0.00559856 0.000588505 -1.74365e-05 -3.03433e-06 1.04377 0
13649 1 6.8876 -6.47101 0.00422267 0.00051184 -1.58649e-05 -1.64337e-06 1.04344 0
14329 1 7.1123 -6.30902 0.00566294 0.00052326 -1.60482e-05 -3.13856e-06 1.04381 0
13640 1 7.05294 -6.4593 0.00428264 0.000469441 -1.47908e-05 -1.72043e-06 1.04348 0
14321 1 7.197 -6.16717 0.00685635 0.000586445 -1.61387e-05 -4.60459e-06 1.044 0
15198 1 5.59919 -0.343672 0.0129678 -0.000663254 1.57889e-05 6.87947e-06 1.04468 0
13970 1 7.29029 -6.3016 0.00568031 0.000458204 -1.42904e-05 -3.51473e-06 1.04383 0
13984 1 7.21758 -6.45361 0.0043003 0.000423584 -1.31115e-05 -2.09708e-06 1.04351 0
14869 1 6.14217 -0.420711 0.0129141 -0.000573307 6.85557e-06 2.47513e-08 1.04454 0
16104 1 0.835064 -6.03328 0.02 0 0 0 1 2
16105 1 1.02673 -6.03474 0.02 0 0 0 1 2
16106 1 1.21904 -6.02704 0.02 0 0 0 1 2
16107 1 0.874285 -5.83368 0.02 0 0 0 1 2
16108 1 1.06843 -5.82876 0.02 0 0 0 1 2
16109 1 1.26359 -5.82346 0.02 0 0 0 1 2
16110 1 1.41696 -5.99289 0.02 0 0 0 1 2
16111 1 1.62538 -5.99456 0.02 0 3.94616e-12 2.21595e-10 1 2
16112 1 1.47007 -5.803 0.02 0 0 0 1 2
16113 1 1.68004 -5.8133 0.02 0 0 0 1 2
16114 1 1.83824 -6.01828 0.02 0 1.96092e-09 3.37429e-08 1 2
16115 1 2.06072 -6.02829 0.02 0 5.02033e-08 2.9585e-07 1 2
16116 1 1.88959 -5.8406 0.02 0 1.41042e-11 9.72308e-11 1 2
16118 1 1.90378 -5.65807 0.02 0 0 0 1 2
16117 1 2.10737 -5.85757 0.02 0 2.92855e-10 1.83517e-09 1 2
16119 1 2.12534 -5.67806 0.02 0 0 0 1 2
16120 1 2.3046 -6.02115 0.02 0 1.12494e-07 4.44244e-07 1 2
16121 1 2.51733 -6.02201 0.02 0 1.07587e-07 3.98158e-07 1 2
16122 1 2.32166 -5.83927 0.02 0 1.23704e-10 5.2843e-10 1 2
16124 1 2.34611 -5.65362 0.02 0 0 0 1 2
15612 1 2.92059 -6.03472 0.02 0 1.18435e-07 4.94477e-07 1 2
16123 1 2.53948 -5.83516 0.02 0 1.30275e-10 7.17163e-10 1 2
16125 1 2.72215 -6.00255 0.02 0 4.705e-08 1.82863e-07 1 2
16126 1 2.75606 -5.8096 0.02 0 5.0512e-11 2.82278e-10 1 2
15613 1 2.95647 -5.84117 0.02 0 2.74836e-10 1.37175e-09 1 2
15614 1 3.12647 -6.01924 0.02 0 7.68523e-08 2.92564e-07 1 2
15615 1 3.1512 -5.81749 0.02 0 7.19349e-11 4.54095e-10 1 2
15616 1 3.33657 -6.01437 0.02 0 5.94873e-08 2.78297e-07 1 2
15617 1 3.34536 -5.82674 0.02 0 -4.17939e-08 -3.04431e-09 1 2
15782 1 3.54843 -6.00636 0.02 0 -0.000256624 -2.68332e-06 1 2
15783 1 3.54073 -5.81326 0.02 0 -0.000229483 -9.8558e-07 1 2
15781 1 3.73565 -5.79328 0.02 0 -0.00208827 7.43928e-05 1 2
15780 1 3.75047 -5.99117 0.02 0 -0.00246107 4.76635e-05 1 2
15784 1 3.9306 -5.79598 0.02 0 -0.0062255 0.000511247 1 2
15785 1 3.94717 -5.99602 0.02 0 -0.00714307 0.000138741 1 2
15788 1 4.00006 -5.77065 0.0181545 0.000150201 -0.00738199 0.000600804 1.03183 0
15786 1 3.99977 -5.99531 0.02 0 -0.00798891 0.000166009 1.03165 2
15368 1 4.35292 -5.93027 0.0115013 0.00340463 8.40897e-05 -1.0525e-05 1.04879 0
15787 1 4.19549 -6.01363 0.00924963 0.00251788 0.000308379 -2.72112e-05 1.05132 0
15789 1 4.00023 -5.76055 0.0181547 0.000138927 -0.00738112 0.00055571 1.03193 0
15790 1 4.06031 -5.91118 0.0095667 0.00110442 0.000414906 -4.31398e-05 1.0412 0
15792 1 4.34866 -5.70798 0.011337 0.00321508 9.59688e-05 -4.04813e-06 1.04868 0
15389 1 4.23963 -5.82645 0.00953202 0.00231805 0.00027347 -3.59391e-05 1.05158 0
15791 1 4.4593 -5.81531 0.0132328 0.00373409 1.07403e-05 -1.11912e-05 1.04552 0
15793 1 4.16982 -5.6611 0.00941392 0.00190305 0.000382094 6.19554e-05 1.05005 0
15372 1 4.52352 -5.96569 0.013495 0.00389925 -2.21477e-06 -8.11417e-06 1.04481 0
15375 1 4.81809 -5.89587 0.0131194 0.00414192 8.26991e-06 -1.80876e-05 1.04489 0
15388 1 4.68885 -5.98606 0.013362 0.00401076 6.30057e-06 -1.41945e-05 1.04457 0
15379 1 4.96476 -5.95744 0.0125057 0.00381379 9.81137e-06 -2.07289e-05 1.04517 0
15376 1 4.63562 -5.832 0.0135627 0.00416716 1.57596e-07 -1.38042e-05 1.04427 0
15390 1 4.5587 -5.69036 0.0134656 0.00407078 -4.55179e-06 -1.39132e-05 1.0442 0
15391 1 4.7696 -5.74676 0.0133526 0.00436226 4.8799e-06 -1.80635e-05 1.04459 0
15397 1 4.70658 -5.6142 0.013379 0.00438032 1.42867e-06 -1.76428e-05 1.04423 0
15395 1 4.88443 -5.6141 0.013154 0.00448098 4.56193e-06 -2.11124e-05 1.04487 0
15399 1 4.93475 -5.77711 0.0129762 0.00426912 6.81857e-06 -2.13235e-05 1.04505 0
15378 1 5.13144 -6.0075 0.0117711 0.00330928 9.89852e-06 -2.31157e-05 1.04502 0
15396 1 5.0454 -5.65874 0.0129191 0.00432559 4.92926e-06 -2.3556e-05 1.04503 0
15380 1 5.07833 -5.84596 0.0125202 0.00392056 7.50103e-06 -2.34452e-05 1.04505 0
15400 1 5.19349 -5.75501 0.012536 0.00391089 5.85718e-06 -2.51023e-05 1.04487 0
15405 1 5.19871 -5.58608 0.0128628 0.00418643 4.30694e-06 -2.52431e-05 1.04485 0
15383 1 5.38593 -5.87862 0.011646 0.00320138 5.53815e-06 -2.5551e-05 1.04455 0
15384 1 5.25075 -5.91335 0.0118545 0.00337482 7.35592e-06 -2.49139e-05 1.04477 0
15403 1 5.3263 -5.68753 0.0124884 0.00379248 4.70633e-06 -2.60181e-05 1.04467 0
15382 1 5.48227 -5.98729 0.0107694 0.00266815 4.84525e-06 -2.45814e-05 1.04442 0
15034 1 5.74184 -6.03162 0.00972077 0.00209512 -8.5827e-07 -2.18046e-05 1.04419 0
15385 1 5.45741 -5.73169 0.0120915 0.00344433 3.96914e-06 -2.61828e-05 1.04451 0
15032 1 5.57697 -5.80013 0.0115349 0.0030499 2.67476e-06 -2.55635e-05 1.04437 0
15404 1 5.59912 -5.60736 0.0122715 0.00342592 2.42895e-06 -2.60505e-05 1.04444 0
15030 1 5.63162 -5.9347 0.010669 0.0025736 1.78891e-06 -2.41357e-05 1.04429 0
15036 1 5.71908 -5.7037 0.0116792 0.00301489 7.09631e-07 -2.51093e-05 1.04432 0
15387 1 5.76904 -5.84588 0.010855 0.00259137 -6.82129e-07 -2.37011e-05 1.04423 0
15024 1 6.16248 -6.03725 0.00877334 0.00155603 -1.1095e-05 -1.52533e-05 1.04403 0