ITEM: TIMESTEP
75000
ITEM: NUMBER OF ATOMS
10348
ITEM: BOX BOUNDS ff ff pp
0.0000000000000000e+00 2.2000000000000000e+01
-1.0000000000000000e+01 1.0000000000000000e+01
-2.0000000000000000e-02 2.0000000000000000e-02
ITEM: ATOMS id type x y vx vy fx fy c_den c_phase
1501 2 2 -10 0 0 0 0 1 4
1551 2 2 -9.8 0 0 0 0 1 4
1601 2 2 -9.6 0 0 0 0 1 4
1502 2 2.2 -10 0 0 0 0 1 4
1503 2 2.4 -10 0 0 0 0 1 4
1552 2 2.2 -9.8 0 0 0 0 1 4
1553 2 2.4 -9.8 0 0 0 0 1 4
1602 2 2.2 -9.6 0 0 0 0 1 4
1603 2 2.4 -9.6 0 0 0 0 1 4
1504 2 2.6 -10 0 0 0 0 1 4
1505 2 2.8 -10 0 0 0 0 1 4
1554 2 2.6 -9.8 0 0 0 0 1 4
1555 2 2.8 -9.8 0 0 0 0 1 4
1604 2 2.6 -9.6 0 0 0 0 1 4
1605 2 2.8 -9.6 0 0 0 0 1 4
1506 2 3 -10 0 0 0 0 1 4
1507 2 3.2 -10 0 0 0 0 1 4
1556 2 3 -9.8 0 0 0 0 1 4
1557 2 3.2 -9.8 0 0 0 0 1 4
1606 2 3 -9.6 0 0 0 0 1 4
1607 2 3.2 -9.6 0 0 0 0 1 4
1508 2 3.4 -10 0 0 0 0 1 4
1509 2 3.6 -10 0 0 0 0 1 4
1558 2 3.4 -9.8 0 0 0 0 1 4
1559 2 3.6 -9.8 0 0 0 0 1 4
1608 2 3.4 -9.6 0 0 0 0 1 4
1609 2 3.6 -9.6 0 0 0 0 1 4
1510 2 3.8 -10 0 0 0 0 1 4
1560 2 3.8 -9.8 0 0 0 0 1 4
1610 2 3.8 -9.6 0 0 0 0 1 4
1511 2 4 -10 0 0 0 0 1 4
1561 2 4 -9.8 0 0 0 0 1 4
1611 2 4 -9.6 0 0 0 0 1 4
1512 2 4.2 -10 0 0 0 0 1 4
1562 2 4.2 -9.8 0 0 0 0 1 4
1612 2 4.2 -9.6 0 0 0 0 1 4
1513 2 4.4 -10 0 0 0 0 1 4
1514 2 4.6 -10 0 0 0 0 1 4
1563 2 4.4 -9.8 0 0 0 0 1 4
1564 2 4.6 -9.8 0 0 0 0 1 4
1613 2 4.4 -9.6 0 0 0 0 1 4
1614 2 4.6 -9.6 0 0 0 0 1 4
1515 2 4.8 -10 0 0 0 0 1 4
1516 2 5 -10 0 0 0 0 1 4
1565 2 4.8 -9.8 0 0 0 0 1 4
1566 2 5 -9.8 0 0 0 0 1 4
1615 2 4.8 -9.6 0 0 0 0 1 4
1616 2 5 -9.6 0 0 0 0 1 4
1517 2 5.2 -10 0 0 0 0 1 4
1518 2 5.4 -10 0 0 0 0 1 4
1567 2 5.2 -9.8 0 0 0 0 1 4
1568 2 5.4 -9.8 0 0 0 0 1 4
1617 2 5.2 -9.6 0 0 0 0 1 4
1618 2 5.4 -9.6 0 0 0 0 1 4
1519 2 5.6 -10 0 0 0 0 1 4
1520 2 5.8 -10 0 0 0 0 1 4
1569 2 5.6 -9.8 0 0 0 0 1 4
1570 2 5.8 -9.8 0 0 0 0 1 4
1619 2 5.6 -9.6 0 0 0 0 1 4
1620 2 5.8 -9.6 0 0 0 0 1 4
1521 2 6 -10 0 0 0 0 1 4
1522 2 6.2 -10 0 0 0 0 1 4
1571 2 6 -9.8 0 0 0 0 1 4
1572 2 6.2 -9.8 0 0 0 0 1 4
1621 2 6 -9.6 0 0 0 0 1 4
1622 2 6.2 -9.6 0 0 0 0 1 4
1523 2 6.4 -10 0 0 0 0 1 4
1524 2 6.6 -10 0 0 0 0 1 4
1573 2 6.4 -9.8 0 0 0 0 1 4
1574 2 6.6 -9.8 0 0 0 0 1 4
1623 2 6.4 -9.6 0 0 0 0 1 4
1624 2 6.6 -9.6 0 0 0 0 1 4
1525 2 6.8 -10 0 0 0 0 1 4
1526 2 7 -10 0 0 0 0 1 4
1575 2 6.8 -9.8 0 0 0 0 1 4
1576 2 7 -9.8 0 0 0 0 1 4
1625 2 6.8 -9.6 0 0 0 0 1 4
1626 2 7 -9.6 0 0 0 0 1 4
1527 2 7.2 -10 0 0 0 0 1 4
1577 2 7.2 -9.8 0 0 0 0 1 4
1627 2 7.2 -9.6 0 0 0 0 1 4
1528 2 7.4 -10 0 0 0 0 1 4
1529 2 7.6 -10 0 0 0 0 1 4
1578 2 7.4 -9.8 0 0 0 0 1 4
1579 2 7.6 -9.8 0 0 0 0 1 4
1628 2 7.4 -9.6 0 0 0 0 1 4
1629 2 7.6 -9.6 0 0 0 0 1 4
1530 2 7.8 -10 0 0 0 0 1 4
1531 2 8 -10 0 0 0 0 1 4
1580 2 7.8 -9.8 0 0 0 0 1 4
1581 2 8 -9.8 0 0 0 0 1 4
1630 2 7.8 -9.6 0 0 0 0 1 4
1631 2 8 -9.6 0 0 0 0 1 4
1532 2 8.2 -10 0 0 0 0 1 4
1533 2 8.4 -10 0 0 0 0 1 4
1582 2 8.2 -9.8 0 0 0 0 1 4
1583 2 8.4 -9.8 0 0 0 0 1 4
1632 2 8.2 -9.6 0 0 0 0 1 4
1633 2 8.4 -9.6 0 0 0 0 1 4
1534 2 8.6 -10 0 0 0 0 1 4
1535 2 8.8 -10 0 0 0 0 1 4
1584 2 8.6 -9.8 0 0 0 0 1 4
1585 2 8.8 -9.8 0 0 0 0 1 4
1634 2 8.6 -9.6 0 0 0 0 1 4
1635 2 8.8 -9.6 0 0 0 0 1 4
1536 2 9 -10 0 0 0 0 1 4
1537 2 9.2 -10 0 0 0 0 1 4
1586 2 9 -9.8 0 0 0 0 1 4
1587 2 9.2 -9.8 0 0 0 0 1 4
1636 2 9 -9.6 0 0 0 0 1 4
1637 2 9.2 -9.6 0 0 0 0 1 4
1538 2 9.4 -10 0 0 0 0 1 4
1539 2 9.6 -10 0 0 0 0 1 4
1588 2 9.4 -9.8 0 0 0 0 1 4
1589 2 9.6 -9.8 0 0 0 0 1 4
1638 2 9.4 -9.6 0 0 0 0 1 4
1639 2 9.6 -9.6 0 0 0 0 1 4
1540 2 9.8 -10 0 0 0 0 1 4
1590 2 9.8 -9.8 0 0 0 0 1 4
1640 2 9.8 -9.6 0 0 0 0 1 4
1541 2 10 -10 0 0 0 0 1 4
1591 2 10 -9.8 0 0 0 0 1 4
1641 2 10 -9.6 0 0 0 0 1 4
1542 2 10.2 -10 0 0 0 0 1 4
1592 2 10.2 -9.8 0 0 0 0 1 4
1642 2 10.2 -9.6 0 0 0 0 1 4
1543 2 10.4 -10 0 0 0 0 1 4
1593 2 10.4 -9.8 0 0 0 0 1 4
1643 2 10.4 -9.6 0 0 0 0 1 4
1544 2 10.6 -10 0 0 0 0 1 4
1594 2 10.6 -9.8 0 0 0 0 1 4
1644 2 10.6 -9.6 0 0 0 0 1 4
1545 2 10.8 -10 0 0 0 0 1 4
1595 2 10.8 -9.8 0 0 0 0 1 4
1645 2 10.8 -9.6 0 0 0 0 1 4
1651 2 2 -9.4 0 0 0 0 1 4
1701 2 2 -9.2 0 0 0 0 1 4
1652 2 2.2 -9.4 0 0 0 0 1 4
1653 2 2.4 -9.4 0 0 0 0 1 4
1702 2 2.2 -9.2 0 0 0 0 1 4
1703 2 2.4 -9.2 0 0 0 0 1 4
1654 2 2.6 -9.4 0 0 0 0 1 4
1655 2 2.8 -9.4 0 0 0 0 1 4
1704 2 2.6 -9.2 0 0 0 0 1 4
1705 2 2.8 -9.2 0 0 0 0 1 4
1656 2 3 -9.4 0 0 0 0 1 4
1657 2 3.2 -9.4 0 0 0 0 1 4
1706 2 3 -9.2 0 0 0 0 1 4
1707 2 3.2 -9.2 0 0 0 0 1 4
1658 2 3.4 -9.4 0 0 0 0 1 4
1659 2 3.6 -9.4 0 0 0 0 1 4
1708 2 3.4 -9.2 0 0 0 0 1 4
1709 2 3.6 -9.2 0 0 0 0 1 4
1660 2 3.8 -9.4 0 0 0 0 1 4
1710 2 3.8 -9.2 0 0 0 0 1 4
1661 2 4 -9.4 0 0 0 0 1 4
1711 2 4 -9.2 0 0 0 0 1 4
1662 2 4.2 -9.4 0 0 0 0 1 4
1712 2 4.2 -9.2 0 0 0 0 1 4
1663 2 4.4 -9.4 0 0 0 0 1 4
1664 2 4.6 -9.4 0 0 0 0 1 4
1713 2 4.4 -9.2 0 0 0 0 1 4
1714 2 4.6 -9.2 0 0 0 0 1 4
1665 2 4.8 -9.4 0 0 0 0 1 4
1666 2 5 -9.4 0 0 0 0 1 4
1715 2 4.8 -9.2 0 0 0 0 1 4
1716 2 5 -9.2 0 0 0 0 1 4
1667 2 5.2 -9.4 0 0 0 0 1 4
1668 2 5.4 -9.4 0 0 0 0 1 4
1717 2 5.2 -9.2 0 0 0 0 1 4
1718 2 5.4 -9.2 0 0 0 0 1 4
1669 2 5.6 -9.4 0 0 0 0 1 4
1670 2 5.8 -9.4 0 0 0 0 1 4
1719 2 5.6 -9.2 0 0 0 0 1 4
1720 2 5.8 -9.2 0 0 0 0 1 4
1671 2 6 -9.4 0 0 0 0 1 4
1672 2 6.2 -9.4 0 0 0 0 1 4
1721 2 6 -9.2 0 0 0 0 1 4
1722 2 6.2 -9.2 0 0 0 0 1 4
1673 2 6.4 -9.4 0 0 0 0 1 4
1674 2 6.6 -9.4 0 0 0 0 1 4
1723 2 6.4 -9.2 0 0 0 0 1 4
1724 2 6.6 -9.2 0 0 0 0 1 4
1675 2 6.8 -9.4 0 0 0 0 1 4
1676 2 7 -9.4 0 0 0 0 1 4
1725 2 6.8 -9.2 0 0 0 0 1 4
1726 2 7 -9.2 0 0 0 0 1 4
1677 2 7.2 -9.4 0 0 0 0 1 4
1727 2 7.2 -9.2 0 0 0 0 1 4
1678 2 7.4 -9.4 0 0 0 0 1 4
1679 2 7.6 -9.4 0 0 0 0 1 4
1728 2 7.4 -9.2 0 0 0 0 1 4
1729 2 7.6 -9.2 0 0 0 0 1 4
1680 2 7.8 -9.4 0 0 0 0 1 4
1681 2 8 -9.4 0 0 0 0 1 4
1730 2 7.8 -9.2 0 0 0 0 1 4
1731 2 8 -9.2 0 0 0 0 1 4
1682 2 8.2 -9.4 0 0 0 0 1 4
1683 2 8.4 -9.4 0 0 0 0 1 4
1732 2 8.2 -9.2 0 0 0 0 1 4
1733 2 8.4 -9.2 0 0 0 0 1 4
1684 2 8.6 -9.4 0 0 0 0 1 4
1685 2 8.8 -9.4 0 0 0 0 1 4
1734 2 8.6 -9.2 0 0 0 0 1 4
1735 2 8.8 -9.2 0 0 0 0 1 4
1686 2 9 -9.4 0 0 0 0 1 4
1687 2 9.2 -9.4 0 0 0 0 1 4
1736 2 9 -9.2 0 0 0 0 1 4
1737 2 9.2 -9.2 0 0 0 0 1 4
1688 2 9.4 -9.4 0 0 0 0 1 4
1689 2 9.6 -9.4 0 0 0 0 1 4
1738 2 9.4 -9.2 0 0 0 0 1 4
1739 2 9.6 -9.2 0 0 0 0 1 4
1690 2 9.8 -9.4 0 0 0 0 1 4
1740 2 9.8 -9.2 0 0 0 0 1 4
1691 2 10 -9.4 0 0 0 0 1 4
1741 2 10 -9.2 0 0 0 0 1 4
1692 2 10.2 -9.4 0 0 0 0 1 4
1742 2 10.2 -9.2 0 0 0 0 1 4
1693 2 10.4 -9.4 0 0 0 0 1 4
1743 2 10.4 -9.2 0 0 0 0 1 4
1694 2 10.6 -9.4 0 0 0 0 1 4
1744 2 10.6 -9.2 0 0 0 0 1 4
1695 2 10.8 -9.4 0 0 0 0 1 4
1745 2 10.8 -9.2 0 0 0 0 1 4
1751 2 2 -9 0 0 0 0 1 4
1801 2 2 -8.8 0 0 0 0 1 4
1752 2 2.2 -9 0 0 0 0 1 4
1753 2 2.4 -9 0 0 0 0 1 4
1802 2 2.2 -8.8 0 0 0 0 1 4
1803 2 2.4 -8.8 0 0 0 0 1 4
1754 2 2.6 -9 0 0 0 0 1 4
1755 2 2.8 -9 0 0 0 0 1 4
1804 2 2.6 -8.8 0 0 0 0 1 4
1805 2 2.8 -8.8 0 0 0 0 1 4
1756 2 3 -9 0 0 0 0 1 4
1757 2 3.2 -9 0 0 0 0 1 4
1806 2 3 -8.8 0 0 0 0 1 4
1807 2 3.2 -8.8 0 0 0 0 1 4
1758 2 3.4 -9 0 0 0 0 1 4
1759 2 3.6 -9 0 0 0 0 1 4
1808 2 3.4 -8.8 0 0 0 0 1 4
1809 2 3.6 -8.8 0 0 0 0 1 4
1760 2 3.8 -9 0 0 0 0 1 4
1810 2 3.8 -8.8 0 0 0 0 1 4
1761 2 4 -9 0 0 0 0 1 4
1811 2 4 -8.8 0 0 0 0 1 4
1762 2 4.2 -9 0 0 0 0 1 4
1812 2 4.2 -8.8 0 0 0 0 1 4
1763 2 4.4 -9 0 0 0 0 1 4
1764 2 4.6 -9 0 0 0 0 1 4
1813 2 4.4 -8.8 0 0 0 0 1 4
1814 2 4.6 -8.8 0 0 0 0 1 4
1765 2 4.8 -9 0 0 0 0 1 4
1766 2 5 -9 0 0 0 0 1 4
1815 2 4.8 -8.8 0 0 0 0 1 4
1816 2 5 -8.8 0 0 0 0 1 4
1767 2 5.2 -9 0 0 0 0 1 4
1768 2 5.4 -9 0 0 0 0 1 4
1817 2 5.2 -8.8 0 0 0 0 1 4
1818 2 5.4 -8.8 0 0 0 0 1 4
1769 2 5.6 -9 0 0 0 0 1 4
1770 2 5.8 -9 0 0 0 0 1 4
1819 2 5.6 -8.8 0 0 0 0 1 4
1820 2 5.8 -8.8 0 0 0 0 1 4
1771 2 6 -9 0 0 0 0 1 4
1772 2 6.2 -9 0 0 0 0 1 4
1821 2 6 -8.8 0 0 0 0 1 4
1822 2 6.2 -8.8 0 0 0 0 1 4
1773 2 6.4 -9 0 0 0 0 1 4
1774 2 6.6 -9 0 0 0 0 1 4
1823 2 6.4 -8.8 0 0 0 0 1 4
1824 2 6.6 -8.8 0 0 0 0 1 4
1775 2 6.8 -9 0 0 0 0 1 4
1776 2 7 -9 0 0 0 0 1 4
1825 2 6.8 -8.8 0 0 0 0 1 4
1826 2 7 -8.8 0 0 0 0 1 4
1777 2 7.2 -9 0 0 0 0 1 4
1827 2 7.2 -8.8 0 0 0 0 1 4
1778 2 7.4 -9 0 0 0 0 1 4
1779 2 7.6 -9 0 0 0 0 1 4
1828 2 7.4 -8.8 0 0 0 0 1 4
1829 2 7.6 -8.8 0 0 0 0 1 4
1780 2 7.8 -9 0 0 0 0 1 4
1781 2 8 -9 0 0 0 0 1 4
1830 2 7.8 -8.8 0 0 0 0 1 4
1831 2 8 -8.8 0 0 0 0 1 4
1782 2 8.2 -9 0 0 0 0 1 4
1783 2 8.4 -9 0 0 0 0 1 4
1832 2 8.2 -8.8 0 0 0 0 1 4
1833 2 8.4 -8.8 0 0 0 0 1 4
1784 2 8.6 -9 0 0 0 0 1 4
1785 2 8.8 -9 0 0 0 0 1 4
1834 2 8.6 -8.8 0 0 0 0 1 4
1835 2 8.8 -8.8 0 0 0 0 1 4
1786 2 9 -9 0 0 0 0 1 4
1787 2 9.2 -9 0 0 0 0 1 4
1836 2 9 -8.8 0 0 0 0 1 4
1837 2 9.2 -8.8 0 0 0 0 1 4
1788 2 9.4 -9 0 0 0 0 1 4
1789 2 9.6 -9 0 0 0 0 1 4
1838 2 9.4 -8.8 0 0 0 0 1 4
1839 2 9.6 -8.8 0 0 0 0 1 4
1790 2 9.8 -9 0 0 0 0 1 4
1840 2 9.8 -8.8 0 0 0 0 1 4
1791 2 10 -9 0 0 0 0 1 4
1841 2 10 -8.8 0 0 0 0 1 4
1792 2 10.2 -9 0 0 0 0 1 4
1842 2 10.2 -8.8 0 0 0 0 1 4
1793 2 10.4 -9 0 0 0 0 1 4
1843 2 10.4 -8.8 0 0 0 0 1 4
1794 2 10.6 -9 0 0 0 0 1 4
1844 2 10.6 -8.8 0 0 0 0 1 4
1795 2 10.8 -9 0 0 0 0 1 4
1845 2 10.8 -8.8 0 0 0 0 1 4
1851 2 2 -8.6 0 0 0 0 1 4
1901 2 2 -8.4 0 0 0 0 1 4
1852 2 2.2 -8.6 0 0 0 0 1 4
1853 2 2.4 -8.6 0 0 0 0 1 4
1902 2 2.2 -8.4 0 0 0 0 1 4
1903 2 2.4 -8.4 0 0 0 0 1 4
1854 2 2.6 -8.6 0 0 0 0 1 4
1855 2 2.8 -8.6 0 0 0 0 1 4
1904 2 2.6 -8.4 0 0 0 0 1 4
1905 2 2.8 -8.4 0 0 0 0 1 4
1856 2 3 -8.6 0 0 0 0 1 4
1857 2 3.2 -8.6 0 0 0 0 1 4
1906 2 3 -8.4 0 0 0 0 1 4
1907 2 3.2 -8.4 0 0 0 0 1 4
1858 2 3.4 -8.6 0 0 0 0 1 4
1859 2 3.6 -8.6 0 0 0 0 1 4
1908 2 3.4 -8.4 0 0 0 0 1 4
1909 2 3.6 -8.4 0 0 0 0 1 4
1860 2 3.8 -8.6 0 0 0 0 1 4
1910 2 3.8 -8.4 0 0 0 0 1 4
1861 2 4 -8.6 0 0 0 0 1 4
1911 2 4 -8.4 0 0 0 0 1 4
1862 2 4.2 -8.6 0 0 0 0 1 4
1912 2 4.2 -8.4 0 0 0 0 1 4
1863 2 4.4 -8.6 0 0 0 0 1 4
1864 2 4.6 -8.6 0 0 0 0 1 4
1913 2 4.4 -8.4 0 0 0 0 1 4
1914 2 4.6 -8.4 0 0 0 0 1 4
1865 2 4.8 -8.6 0 0 0 0 1 4
1866 2 5 -8.6 0 0 0 0 1 4
1915 2 4.8 -8.4 0 0 0 0 1 4
1916 2 5 -8.4 0 0 0 0 1 4
1867 2 5.2 -8.6 0 0 0 0 1 4
1868 2 5.4 -8.6 0 0 0 0 1 4
1917 2 5.2 -8.4 0 0 0 0 1 4
1918 2 5.4 -8.4 0 0 0 0 1 4
1869 2 5.6 -8.6 0 0 0 0 1 4
1870 2 5.8 -8.6 0 0 0 0 1 4
1919 2 5.6 -8.4 0 0 0 0 1 4
1920 2 5.8 -8.4 0 0 0 0 1 4
1871 2 6 -8.6 0 0 0 0 1 4
1872 2 6.2 -8.6 0 0 0 0 1 4
1921 2 6 -8.4 0 0 0 0 1 4
1922 2 6.2 -8.4 0 0 0 0 1 4
1873 2 6.4 -8.6 0 0 0 0 1 4
1874 2 6.6 -8.6 0 0 0 0 1 4
1923 2 6.4 -8.4 0 0 0 0 1 4
1924 2 6.6 -8.4 0 0 0 0 1 4
1875 2 6.8 -8.6 0 0 0 0 1 4
1876 2 7 -8.6 0 0 0 0 1 4
1925 2 6.8 -8.4 0 0 0 0 1 4
1926 2 7 -8.4 0 0 0 0 1 4
1877 2 7.2 -8.6 0 0 0 0 1 4
1927 2 7.2 -8.4 0 0 0 0 1 4
1878 2 7.4 -8.6 0 0 0 0 1 4
1879 2 7.6 -8.6 0 0 0 0 1 4
1928 2 7.4 -8.4 0 0 0 0 1 4
1929 2 7.6 -8.4 0 0 0 0 1 4
1880 2 7.8 -8.6 0 0 0 0 1 4
1881 2 8 -8.6 0 0 0 0 1 4
1930 2 7.8 -8.4 0 0 0 0 1 4
1931 2 8 -8.4 0 0 0 0 1 4
1882 2 8.2 -8.6 0 0 0 0 1 4
1883 2 8.4 -8.6 0 0 0 0 1 4
1932 2 8.2 -8.4 0 0 0 0 1 4
1933 2 8.4 -8.4 0 0 0 0 1 4
1884 2 8.6 -8.6 0 0 0 0 1 4
1885 2 8.8 -8.6 0 0 0 0 1 4
1934 2 8.6 -8.4 0 0 0 0 1 4
1935 2 8.8 -8.4 0 0 0 0 1 4
1886 2 9 -8.6 0 0 0 0 1 4
1887 2 9.2 -8.6 0 0 0 0 1 4
1936 2 9 -8.4 0 0 0 0 1 4
1937 2 9.2 -8.4 0 0 0 0 1 4
1888 2 9.4 -8.6 0 0 0 0 1 4
1889 2 9.6 -8.6 0 0 0 0 1 4
1938 2 9.4 -8.4 0 0 0 0 1 4
1939 2 9.6 -8.4 0 0 0 0 1 4
1890 2 9.8 -8.6 0 0 0 0 1 4
1940 2 9.8 -8.4 0 0 0 0 1 4
1891 2 10 -8.6 0 0 0 0 1 4
1941 2 10 -8.4 0 0 0 0 1 4
1892 2 10.2 -8.6 0 0 0 0 1 4
1942 2 10.2 -8.4 0 0 0 0 1 4
1893 2 10.4 -8.6 0 0 0 0 1 4
1943 2 10.4 -8.4 0 0 0 0 1 4
1894 2 10.6 -8.6 0 0 0 0 1 4
1944 2 10.6 -8.4 0 0 0 0 1 4
1895 2 10.8 -8.6 0 0 0 0 1 4
1945 2 10.8 -8.4 0 0 0 0 1 4
1951 2 2 -8.2 0 0 0 0 1 4
2001 2 2 -8 0 0 0 0 1 4
1952 2 2.2 -8.2 0 0 0 0 1 4
1953 2 2.4 -8.2 0 0 0 0 1 4
2002 2 2.2 -8 0 0 0 0 1 4
2003 2 2.4 -8 0 0 0 0 1 4
1954 2 2.6 -8.2 0 0 0 0 1 4
1955 2 2.8 -8.2 0 0 0 0 1 4
2004 2 2.6 -8 0 0 0 0 1 4
2005 2 2.8 -8 0 0 0 0 1 4
1956 2 3 -8.2 0 0 0 0 1 4
1957 2 3.2 -8.2 0 0 0 0 1 4
2006 2 3 -8 0 0 0 0 1 4
2007 2 3.2 -8 0 0 0 0 1 4
1958 2 3.4 -8.2 0 0 0 0 1 4
1959 2 3.6 -8.2 0 0 0 0 1 4
2008 2 3.4 -8 0 0 0 0 1 4
2009 2 3.6 -8 0 0 0 0 1 4
1960 2 3.8 -8.2 0 0 0 0 1 4
2010 2 3.8 -8 0 0 0 0 1 4
1961 2 4 -8.2 0 0 0 0 1 4
2011 2 4 -8 0 0 0 0 1 4
1962 2 4.2 -8.2 0 0 0 0 1 4
2012 2 4.2 -8 0 0 0 0 1 4
1963 2 4.4 -8.2 0 0 0 0 1 4
1964 2 4.6 -8.2 0 0 0 0 1 4
2013 2 4.4 -8 0 0 0 0 1 4
2014 2 4.6 -8 0 0 0 0 1 4
1965 2 4.8 -8.2 0 0 0 0 1 4
1966 2 5 -8.2 0 0 0 0 1 4
2015 2 4.8 -8 0 0 0 0 1 4
2016 2 5 -8 0 0 0 0 1 4
1967 2 5.2 -8.2 0 0 0 0 1 4
1968 2 5.4 -8.2 0 0 0 0 1 4
2017 2 5.2 -8 0 0 0 0 1 4
2018 2 5.4 -8 0 0 0 0 1 4
1969 2 5.6 -8.2 0 0 0 0 1 4
1970 2 5.8 -8.2 0 0 0 0 1 4
2019 2 5.6 -8 0 0 0 0 1 4
2020 2 5.8 -8 0 0 0 0 1 4
1971 2 6 -8.2 0 0 0 0 1 4
1972 2 6.2 -8.2 0 0 0 0 1 4
2021 2 6 -8 0 0 0 0 1 4
2022 2 6.2 -8 0 0 0 0 1 4
1973 2 6.4 -8.2 0 0 0 0 1 4
1974 2 6.6 -8.2 0 0 0 0 1 4
2023 2 6.4 -8 0 0 0 0 1 4
2024 2 6.6 -8 0 0 0 0 1 4
1975 2 6.8 -8.2 0 0 0 0 1 4
1976 2 7 -8.2 0 0 0 0 1 4
2025 2 6.8 -8 0 0 0 0 1 4
2026 2 7 -8 0 0 0 0 1 4
1977 2 7.2 -8.2 0 0 0 0 1 4
2027 2 7.2 -8 0 0 0 0 1 4
1978 2 7.4 -8.2 0 0 0 0 1 4
1979 2 7.6 -8.2 0 0 0 0 1 4
2028 2 7.4 -8 0 0 0 0 1 4
2029 2 7.6 -8 0 0 0 0 1 4
1980 2 7.8 -8.2 0 0 0 0 1 4
1981 2 8 -8.2 0 0 0 0 1 4
2030 2 7.8 -8 0 0 0 0 1 4
2031 2 8 -8 0 0 0 0 1 4
1982 2 8.2 -8.2 0 0 0 0 1 4
1983 2 8.4 -8.2 0 0 0 0 1 4
2032 2 8.2 -8 0 0 0 0 1 4
2033 2 8.4 -8 0 0 0 0 1 4
1984 2 8.6 -8.2 0 0 0 0 1 4
1985 2 8.8 -8.2 0 0 0 0 1 4
2034 2 8.6 -8 0 0 0 0 1 4
2035 2 8.8 -8 0 0 0 0 1 4
1986 2 9 -8.2 0 0 0 0 1 4
1987 2 9.2 -8.2 0 0 0 0 1 4
2036 2 9 -8 0 0 0 0 1 4
2037 2 9.2 -8 0 0 0 0 1 4
1988 2 9.4 -8.2 0 0 0 0 1 4
1989 2 9.6 -8.2 0 0 0 0 1 4
2038 2 9.4 -8 0 0 0 0 1 4
2039 2 9.6 -8 0 0 0 0 1 4
1990 2 9.8 -8.2 0 0 0 0 1 4
2040 2 9.8 -8 0 0 0 0 1 4
1991 2 10 -8.2 0 0 0 0 1 4
2041 2 10 -8 0 0 0 0 1 4
1992 2 10.2 -8.2 0 0 0 0 1 4
2042 2 10.2 -8 0 0 0 0 1 4
1993 2 10.4 -8.2 0 0 0 0 1 4
2043 2 10.4 -8 0 0 0 0 1 4
1994 2 10.6 -8.2 0 0 0 0 1 4
2044 2 10.6 -8 0 0 0 0 1 4
1995 2 10.8 -8.2 0 0 0 0 1 4
2045 2 10.8 -8 0 0 0 0 1 4
2051 2 2 -7.8 0 0 0 0 1 4
2101 2 2 -7.6 0 0 0 0 1 4
2151 2 2 -7.4 0 0 0 0 0.999636 4
2052 2 2.2 -7.8 0 0 0 0 1 4
2053 2 2.4 -7.8 0 0 0 0 1 4
2102 2 2.2 -7.6 0 0 0 0 1 4
2103 2 2.4 -7.6 0 0 0 0 1 4
2152 2 2.2 -7.4 0 0 0 0 0.999636 4
2153 2 2.4 -7.4 0 0 0 0 0.999954 4
2054 2 2.6 -7.8 0 0 0 0 1 4
2055 2 2.8 -7.8 0 0 0 0 1 4
2104 2 2.6 -7.6 0 0 0 0 1 4
2105 2 2.8 -7.6 0 0 0 0 1 4
2154 2 2.6 -7.4 0 0 0 0 1.00002 4
2155 2 2.8 -7.4 0 0 0 0 1.00001 4
2056 2 3 -7.8 0 0 0 0 1 4
2057 2 3.2 -7.8 0 0 0 0 1 4
2106 2 3 -7.6 0 0 0 0 1 4
2107 2 3.2 -7.6 0 0 0 0 1 4
2156 2 3 -7.4 0 0 0 0 0.999996 4
2157 2 3.2 -7.4 0 0 0 0 1 4
2058 2 3.4 -7.8 0 0 0 0 1 4
2059 2 3.6 -7.8 0 0 0 0 1 4
2108 2 3.4 -7.6 0 0 0 0 1 4
2109 2 3.6 -7.6 0 0 0 0 1 4
2158 2 3.4 -7.4 0 0 0 0 0.999995 4
2159 2 3.6 -7.4 0 0 0 0 1.00001 4
2060 2 3.8 -7.8 0 0 0 0 1 4
2110 2 3.8 -7.6 0 0 0 0 1 4
2160 2 3.8 -7.4 0 0 0 0 1.00006 4
2061 2 4 -7.8 0 0 0 0 1 4
2111 2 4 -7.6 0 0 0 0 1 4
2161 2 4 -7.4 0 0 0 0 1.00111 4
2062 2 4.2 -7.8 0 0 0 0 1 4
2112 2 4.2 -7.6 0 0 0 0 1 4
2162 2 4.2 -7.4 0 0 0 0 1.00965 4
2063 2 4.4 -7.8 0 0 0 0 1 4
2064 2 4.6 -7.8 0 0 0 0 1 4
2113 2 4.4 -7.6 0 0 0 0 1 4
2114 2 4.6 -7.6 0 0 0 0 1 4
2163 2 4.4 -7.4 0 0 0 0 1.00681 4
2164 2 4.6 -7.4 0 0 0 0 1.00508 4
2065 2 4.8 -7.8 0 0 0 0 1 4
2066 2 5 -7.8 0 0 0 0 1 4
2115 2 4.8 -7.6 0 0 0 0 1 4
2116 2 5 -7.6 0 0 0 0 1 4
2165 2 4.8 -7.4 0 0 0 0 1.0024 4
2166 2 5 -7.4 0 0 0 0 1.00204 4
2067 2 5.2 -7.8 0 0 0 0 1 4
2068 2 5.4 -7.8 0 0 0 0 1 4
2117 2 5.2 -7.6 0 0 0 0 1 4
2118 2 5.4 -7.6 0 0 0 0 1 4
2167 2 5.2 -7.4 0 0 0 0 1.00205 4
2168 2 5.4 -7.4 0 0 0 0 1.00211 4
2069 2 5.6 -7.8 0 0 0 0 1 4
2070 2 5.8 -7.8 0 0 0 0 1 4
2119 2 5.6 -7.6 0 0 0 0 1 4
2120 2 5.8 -7.6 0 0 0 0 1 4
2169 2 5.6 -7.4 0 0 0 0 1.00187 4
2170 2 5.8 -7.4 0 0 0 0 1.00193 4
2071 2 6 -7.8 0 0 0 0 1 4
2072 2 6.2 -7.8 0 0 0 0 1 4
2121 2 6 -7.6 0 0 0 0 1 4
2122 2 6.2 -7.6 0 0 0 0 1 4
2171 2 6 -7.4 0 0 0 0 1.00192 4
2172 2 6.2 -7.4 0 0 0 0 1.00178 4
2073 2 6.4 -7.8 0 0 0 0 1 4
2074 2 6.6 -7.8 0 0 0 0 1 4
2123 2 6.4 -7.6 0 0 0 0 1 4
2124 2 6.6 -7.6 0 0 0 0 1 4
2173 2 6.4 -7.4 0 0 0 0 1.00165 4
2174 2 6.6 -7.4 0 0 0 0 1.00162 4
2075 2 6.8 -7.8 0 0 0 0 1 4
2076 2 7 -7.8 0 0 0 0 1 4
2125 2 6.8 -7.6 0 0 0 0 1 4
2126 2 7 -7.6 0 0 0 0 1 4
2175 2 6.8 -7.4 0 0 0 0 1.00167 4
2176 2 7 -7.4 0 0 0 0 1.00158 4
2077 2 7.2 -7.8 0 0 0 0 1 4
2127 2 7.2 -7.6 0 0 0 0 1 4
2177 2 7.2 -7.4 0 0 0 0 1.00155 4
2078 2 7.4 -7.8 0 0 0 0 1 4
2079 2 7.6 -7.8 0 0 0 0 1 4
2128 2 7.4 -7.6 0 0 0 0 1 4
2129 2 7.6 -7.6 0 0 0 0 1 4
2178 2 7.4 -7.4 0 0 0 0 1.00159 4
2179 2 7.6 -7.4 0 0 0 0 1.00159 4
2080 2 7.8 -7.8 0 0 0 0 1 4
2081 2 8 -7.8 0 0 0 0 1 4
2130 2 7.8 -7.6 0 0 0 0 1 4
2131 2 8 -7.6 0 0 0 0 1 4
2180 2 7.8 -7.4 0 0 0 0 1.00159 4
2181 2 8 -7.4 0 0 0 0 1.00152 4
2082 2 8.2 -7.8 0 0 0 0 1 4
2083 2 8.4 -7.8 0 0 0 0 1 4
2132 2 8.2 -7.6 0 0 0 0 1 4
2133 2 8.4 -7.6 0 0 0 0 1 4
2182 2 8.2 -7.4 0 0 0 0 1.0015 4
2183 2 8.4 -7.4 0 0 0 0 1.00147 4
2084 2 8.6 -7.8 0 0 0 0 1 4
2085 2 8.8 -7.8 0 0 0 0 1 4
2134 2 8.6 -7.6 0 0 0 0 1 4
2135 2 8.8 -7.6 0 0 0 0 1 4
2184 2 8.6 -7.4 0 0 0 0 1.00147 4
2185 2 8.8 -7.4 0 0 0 0 1.00154 4
2086 2 9 -7.8 0 0 0 0 1 4
2087 2 9.2 -7.8 0 0 0 0 1 4
2136 2 9 -7.6 0 0 0 0 1 4
2137 2 9.2 -7.6 0 0 0 0 1 4
2186 2 9 -7.4 0 0 0 0 1.00139 4
2187 2 9.2 -7.4 0 0 0 0 1.00146 4
2088 2 9.4 -7.8 0 0 0 0 1 4
2089 2 9.6 -7.8 0 0 0 0 1 4
2138 2 9.4 -7.6 0 0 0 0 1 4
2139 2 9.6 -7.6 0 0 0 0 1 4
2188 2 9.4 -7.4 0 0 0 0 1.0015 4
2189 2 9.6 -7.4 0 0 0 0 1.00137 4
2090 2 9.8 -7.8 0 0 0 0 1 4
2140 2 9.8 -7.6 0 0 0 0 1 4
2190 2 9.8 -7.4 0 0 0 0 1.00132 4
2091 2 10 -7.8 0 0 0 0 1 4
2141 2 10 -7.6 0 0 0 0 1 4
2191 2 10 -7.4 0 0 0 0 1.00129 4
2092 2 10.2 -7.8 0 0 0 0 1 4
2142 2 10.2 -7.6 0 0 0 0 1 4
2192 2 10.2 -7.4 0 0 0 0 1.00128 4
2093 2 10.4 -7.8 0 0 0 0 1 4
2143 2 10.4 -7.6 0 0 0 0 1 4
2193 2 10.4 -7.4 0 0 0 0 1.00121 4
2094 2 10.6 -7.8 0 0 0 0 1 4
2144 2 10.6 -7.6 0 0 0 0 1 4
2194 2 10.6 -7.4 0 0 0 0 1.00129 4
2095 2 10.8 -7.8 0 0 0 0 1 4
2145 2 10.8 -7.6 0 0 0 0 1 4
2195 2 10.8 -7.4 0 0 0 0 1.00131 4
2201 2 2 -7.2 0 0 0 0 0.99964 4
2251 2 2 -7 0 0 0 0 0.999667 4
2202 2 2.2 -7.2 0 0 0 0 0.999709 4
2203 2 2.4 -7.2 0 0 0 0 0.999905 4
2252 2 2.2 -7 0 0 0 0 0.999752 4
2253 2 2.4 -7 0 0 0 0 0.99991 4
2204 2 2.6 -7.2 0 0 0 0 1.00001 4
2205 2 2.8 -7.2 0 0 0 0 1.00001 4
2254 2 2.6 -7 0 0 0 0 1 4
2255 2 2.8 -7 0 0 0 0 1.00001 4
2206 2 3 -7.2 0 0 0 0 1 4
2207 2 3.2 -7.2 0 0 0 0 1 4
2256 2 3 -7 0 0 0 0 1 4
2257 2 3.2 -7 0 0 0 0 1 4
2208 2 3.4 -7.2 0 0 0 0 1 4
2209 2 3.6 -7.2 0 0 0 0 1.00002 4
2258 2 3.4 -7 0 0 0 0 1 4
2259 2 3.6 -7 0 0 0 0 1.00003 4
2210 2 3.8 -7.2 0 0 0 0 1.00054 4
2260 2 3.8 -7 0 0 0 0 1.00101 4
2211 2 4 -7.2 0 0 0 0 1.00494 4
2261 2 4 -7 0 0 0 0 1.00513 4
2212 2 4.2 -7.2 0 0 0 0 1.00867 4
2262 2 4.2 -7 0 0 0 0 1.00831 4
2213 2 4.4 -7.2 0 0 0 0 1.00724 4
2214 2 4.6 -7.2 0 0 0 0 1.00467 4
2263 2 4.4 -7 0 0 0 0 1.00735 4
2264 2 4.6 -7 0 0 0 0 1.00479 4
2215 2 4.8 -7.2 0 0 0 0 1.00275 4
2216 2 5 -7.2 0 0 0 0 1.00231 4
2265 2 4.8 -7 0 0 0 0 1.00311 4
2266 2 5 -7 0 0 0 0 1.00263 4
2217 2 5.2 -7.2 0 0 0 0 1.00229 4
2218 2 5.4 -7.2 0 0 0 0 1.00237 4
2267 2 5.2 -7 0 0 0 0 1.00254 4
2268 2 5.4 -7 0 0 0 0 1.00254 4
2219 2 5.6 -7.2 0 0 0 0 1.00211 4
2220 2 5.8 -7.2 0 0 0 0 1.00203 4
2269 2 5.6 -7 0 0 0 0 1.00227 4
2270 2 5.8 -7 0 0 0 0 1.00217 4
2221 2 6 -7.2 0 0 0 0 1.00204 4
2222 2 6.2 -7.2 0 0 0 0 1.0019 4
2271 2 6 -7 0 0 0 0 1.00214 4
2272 2 6.2 -7 0 0 0 0 1.00202 4
2223 2 6.4 -7.2 0 0 0 0 1.00177 4
2224 2 6.6 -7.2 0 0 0 0 1.00172 4
2273 2 6.4 -7 0 0 0 0 1.0019 4
2274 2 6.6 -7 0 0 0 0 1.00184 4
2225 2 6.8 -7.2 0 0 0 0 1.00175 4
2226 2 7 -7.2 0 0 0 0 1.0017 4
2275 2 6.8 -7 0 0 0 0 1.00184 4
2276 2 7 -7 0 0 0 0 1.0018 4
2227 2 7.2 -7.2 0 0 0 0 1.00164 4
2277 2 7.2 -7 0 0 0 0 1.00174 4
2228 2 7.4 -7.2 0 0 0 0 1.00166 4
2229 2 7.6 -7.2 0 0 0 0 1.00166 4
2278 2 7.4 -7 0 0 0 0 1.00174 4
2279 2 7.6 -7 0 0 0 0 1.00171 4
2230 2 7.8 -7.2 0 0 0 0 1.00162 4
2231 2 8 -7.2 0 0 0 0 1.0016 4
2280 2 7.8 -7 0 0 0 0 1.00168 4
2281 2 8 -7 0 0 0 0 1.00165 4
2232 2 8.2 -7.2 0 0 0 0 1.00156 4
2233 2 8.4 -7.2 0 0 0 0 1.00153 4
2282 2 8.2 -7 0 0 0 0 1.00162 4
2283 2 8.4 -7 0 0 0 0 1.00158 4
2234 2 8.6 -7.2 0 0 0 0 1.00151 4
2235 2 8.8 -7.2 0 0 0 0 1.00154 4
2284 2 8.6 -7 0 0 0 0 1.00155 4
2285 2 8.8 -7 0 0 0 0 1.00155 4
2236 2 9 -7.2 0 0 0 0 1.00148 4
2237 2 9.2 -7.2 0 0 0 0 1.00149 4
2286 2 9 -7 0 0 0 0 1.00151 4
2287 2 9.2 -7 0 0 0 0 1.00151 4
2238 2 9.4 -7.2 0 0 0 0 1.0015 4
2239 2 9.6 -7.2 0 0 0 0 1.00141 4
2288 2 9.4 -7 0 0 0 0 1.00151 4
2289 2 9.6 -7 0 0 0 0 1.00144 4
2240 2 9.8 -7.2 0 0 0 0 1.00136 4
2290 2 9.8 -7 0 0 0 0 1.0014 4
2241 2 10 -7.2 0 0 0 0 1.00133 4
2291 2 10 -7 0 0 0 0 1.00138 4
2242 2 10.2 -7.2 0 0 0 0 1.00132 4
2292 2 10.2 -7 0 0 0 0 1.00135 4
2243 2 10.4 -7.2 0 0 0 0 1.00127 4
2293 2 10.4 -7 0 0 0 0 1.0013 4
2244 2 10.6 -7.2 0 0 0 0 1.0013 4
2294 2 10.6 -7 0 0 0 0 1.00131 4
2245 2 10.8 -7.2 0 0 0 0 1.0013 4
2295 2 10.8 -7 0 0 0 0 1.0013 4
14998 1 2.1912 -6.76647 0.02 0 0 0 0.999818 1
14999 1 2.39351 -6.74125 0.02 0 0 0 0.999988 1
15000 1 2.15874 -6.5656 0.02 0 0 0 0.999886 1
15001 1 2.34574 -6.56063 0.02 0 0 0 0.999995 1
15002 1 2.59159 -6.77108 0.02 0 0 0 1.00001 1
15003 1 2.78218 -6.71828 0.02 0 0 0 1 1
15004 1 2.548 -6.57714 0.02 0 0 0 1 1
15005 1 2.75065 -6.55056 0.02 0 0 0 1 1
15006 1 2.97025 -6.75881 0.02 0 0 0 0.999998 1
15007 1 3.1677 -6.73357 0.02 0 0 0 1.00001 1
15008 1 2.96895 -6.56643 0.02 0 0 0 1 1
15009 1 3.17456 -6.55489 0.02 0 0 0 1 1
15010 1 3.3743 -6.75568 0.02 0 0 0 0.999998 1
15011 1 3.587 -6.74552 0.02 0 0 0 1 1
15012 1 3.37726 -6.56984 0.02 0 0 0 1 1
15013 1 3.5799 -6.56641 0.02 0 0 0 1 1
14651 1 4.00029 -6.74285 0.018473 3.86069e-05 -0.00610814 0.000154428 1.00038 0
14652 1 4.00023 -6.55613 0.0195657 0.000218071 -0.00173725 0.000872286 1.00032 0
15014 1 3.79627 -6.74729 0.02 0 0 0 1.00002 1
15015 1 3.79124 -6.56797 0.02 0 0 0 1.00002 1
14653 1 4.13396 -6.73758 0.0121567 0.00156337 0.000395575 6.77612e-05 1.01081 0
14656 1 4.15602 -6.53477 0.0163348 0.00355004 0.000110859 2.93962e-05 1.00905 0
14654 1 4.28618 -6.6735 0.0124997 0.00248018 -8.12342e-06 -3.34226e-05 1.0091 0
14657 1 4.32132 -6.4646 0.0163372 0.00438423 -9.06456e-06 -2.38553e-05 1.00783 0
14655 1 4.45535 -6.57175 0.0141723 0.00313347 -5.19113e-05 -2.4872e-05 1.00628 0
14659 1 4.42327 -6.7808 0.007659 0.000984574 -4.17924e-06 4.22526e-06 1.00762 0
14660 1 4.59611 -6.63038 0.0112675 0.00208037 -3.32596e-05 -1.10642e-05 1.00437 0
14663 1 4.77126 -6.54044 0.0122272 0.00223023 -1.18897e-05 -1.68002e-06 1.00401 0
14664 1 4.70978 -6.74247 0.00682773 0.00086154 -1.28243e-05 -2.67692e-06 1.0037 0
14667 1 4.9392 -6.55638 0.0105795 0.00158389 -1.06282e-05 -3.80291e-06 1.00352 0
14671 1 4.88951 -6.74636 0.00558153 0.000525401 -6.86045e-06 -1.96863e-06 1.00351 0
14315 1 5.08095 -6.7167 0.00547045 0.000453477 -5.81396e-06 -2.29882e-06 1.00294 0
14318 1 5.29136 -6.62935 0.00687775 0.000657222 -5.83014e-06 -2.84064e-06 1.00278 0
14322 1 5.52857 -6.53871 0.0079852 0.000820713 -5.33148e-06 -2.48404e-06 1.00266 0
14328 1 5.30958 -6.7965 0.00332414 0.000104374 -3.38633e-06 -1.27914e-06 1.00298 0
13991 1 5.5249 -6.68828 0.00485043 0.000347606 -3.43901e-06 -1.51012e-06 1.00249 0
13996 1 5.67655 -6.74146 0.00344693 0.000145864 -2.84812e-06 -6.73479e-07 1.00244 0
14002 1 5.86646 -6.6218 0.00532495 0.000398929 -3.86403e-06 -8.86007e-07 1.00224 0
13638 1 5.91732 -6.77316 0.00263949 8.64134e-05 -2.23363e-06 -1.89689e-07 1.00236 0
14324 1 5.7465 -6.51329 0.00771846 0.000747596 -4.85561e-06 -1.86192e-06 1.00251 0
13631 1 6.14543 -6.58715 0.00538569 0.00035885 -3.61479e-06 -3.94756e-07 1.00215 0
13276 1 6.12788 -6.75327 0.00268868 7.4742e-05 -2.23385e-06 -1.0389e-07 1.00223 0
13634 1 6.3821 -6.5716 0.00524187 0.000312822 -3.31896e-06 -8.48564e-08 1.00202 0
12923 1 6.32979 -6.7428 0.00264883 4.9167e-05 -2.12587e-06 4.24871e-08 1.0021 0
13642 1 6.58492 -6.53845 0.00542189 0.000316658 -3.19937e-06 1.3613e-07 1.00198 0
12927 1 6.525 -6.72239 0.00277807 4.84166e-05 -2.10778e-06 1.52896e-07 1.00201 0
13649 1 6.7681 -6.52815 0.0053008 0.000296189 -2.97852e-06 3.05541e-07 1.00195 0
12585 1 6.70604 -6.72996 0.00254029 3.9358e-05 -1.88399e-06 2.27902e-07 1.002 0
12592 1 6.88533 -6.70904 0.00270325 3.88263e-05 -1.88133e-06 3.02623e-07 1.00199 0
12934 1 7.28617 -6.53648 0.00460901 0.000185456 -2.24368e-06 5.67821e-07 1.0018 0
12248 1 7.05662 -6.71041 0.00256392 2.05421e-05 -1.74988e-06 3.52727e-07 1.00194 0
11919 1 7.22964 -6.72021 0.00232442 8.79071e-06 -1.51849e-06 3.56859e-07 1.00185 0
12943 1 7.4745 -6.58386 0.00388023 0.000131338 -1.79187e-06 5.05708e-07 1.00175 0
12936 1 7.65577 -6.52735 0.0044308 0.000140525 -1.69132e-06 5.23555e-07 1.00174 0
11538 1 7.41007 -6.75608 0.00189087 -3.01314e-06 -1.18698e-06 3.21079e-07 1.00184 0
11195 1 7.62061 -6.73399 0.0020395 5.96543e-06 -1.08406e-06 3.14954e-07 1.00179 0
12254 1 7.81962 -6.56887 0.00383976 0.00010883 -1.3044e-06 3.93016e-07 1.0017 0
10864 1 7.83046 -6.74537 0.00186133 6.00716e-06 -7.98587e-07 2.64159e-07 1.00174 0
10527 1 8.03394 -6.74028 0.00184966 -9.07163e-06 -6.48449e-07 2.00063e-07 1.00173 0
12589 1 8.14372 -6.56396 0.00371281 9.68888e-05 -8.11204e-07 2.59877e-07 1.00165 0
11207 1 8.32993 -6.55541 0.0037173 8.64873e-05 -5.64469e-07 1.96574e-07 1.00162 0
10538 1 8.24437 -6.73774 0.00182428 -1.0536e-05 -4.25716e-07 1.29349e-07 1.0017 0
12240 1 8.5065 -6.53546 0.00384832 7.26559e-05 -4.15666e-07 1.29577e-07 1.00158 0
10178 1 8.44926 -6.73862 0.00175214 -1.16631e-05 -2.70832e-07 6.59854e-08 1.00165 0
10185 1 8.65228 -6.64009 0.0027039 3.01629e-05 -2.38956e-07 4.49613e-08 1.00154 0
3116 1 8.73588 -6.76903 0.00146335 3.82306e-06 -7.38301e-08 5.70974e-09 1.00158 0
3119 1 8.93512 -6.72994 0.00174196 1.16537e-06 -9.75232e-08 1.65728e-08 1.00156 0
11546 1 9.04721 -6.53457 0.00365735 6.53749e-05 -9.83602e-08 3.82366e-08 1.00152 0
3109 1 9.18241 -6.61518 0.00279899 3.48113e-05 -8.12126e-08 1.5931e-08 1.0015 0
3123 1 9.1835 -6.77903 0.00133874 -3.86878e-06 -1.50122e-09 9.29151e-09 1.00154 0
3113 1 9.4003 -6.58999 0.00299005 4.57156e-05 -9.71635e-08 4.86828e-08 1.00149 0
3124 1 9.44095 -6.74376 0.0015476 1.17664e-05 -3.69078e-08 3.2702e-08 1.0015 0
3117 1 9.71874 -6.57357 0.00307143 5.057e-05 -1.46328e-07 1.54965e-07 1.00142 0
3125 1 9.63274 -6.73433 0.00159198 -1.28449e-05 -1.22932e-07 4.65955e-08 1.00148 0
3121 1 9.96371 -6.55799 0.00316093 4.07479e-05 -2.22714e-07 2.38401e-07 1.00139 0
3126 1 9.83217 -6.73159 0.00158569 -1.91154e-05 -1.77691e-07 9.66221e-08 1.00146 0
10521 1 10.1769 -6.54561 0.0032314 2.95319e-05 -2.50193e-07 3.12649e-07 1.00136 0
3127 1 10.0307 -6.72256 0.00163699 -2.38706e-05 -2.21187e-07 1.46471e-07 1.00143 0
3128 1 10.2181 -6.73865 0.00148211 -2.51835e-05 -2.51124e-07 1.88523e-07 1.00141 0
10174 1 10.3667 -6.5266 0.00336803 9.98773e-06 -2.4045e-07 3.77584e-07 1.00133 0
3129 1 10.4125 -6.68209 0.00195289 -1.38291e-05 -2.51121e-07 2.86756e-07 1.0013 0
3131 1 10.5551 -6.76645 0.00127767 -1.74633e-05 -2.33519e-07 2.34808e-07 1.00133 0
3105 1 10.5824 -6.5445 0.00319109 1.18875e-05 -1.30873e-07 4.05966e-07 1.0013 0
3103 1 10.7725 -6.53943 0.00321111 -3.63541e-06 -6.75921e-09 4.39977e-07 1.00128 0
3130 1 10.7562 -6.72744 0.00155317 -1.54502e-05 -1.55458e-07 2.53974e-07 1.00134 0
3132 1 10.942 -6.65941 0.00214276 -1.78006e-05 -2.58844e-08 3.24065e-07 1.00122 0
15020 1 2.00372 -6.16523 0.02 0 0 0 1 1
15016 1 2.18197 -6.35968 0.02 0 0 0 1 1
15017 1 2.37259 -6.37026 0.02 0 0 0 1 1
15018 1 2.19863 -6.15822 0.02 0 0 0 1 1
15019 1 2.39447 -6.17271 0.02 0 0 0 1 1
15021 1 2.56697 -6.38957 0.02 0 0 0 1 1
15022 1 2.7778 -6.37948 0.02 0 0 0 1 1
15023 1 2.59404 -6.20206 0.02 0 0 0 1 1
15024 1 2.80687 -6.20282 0.02 0 0 0 1 1
15025 1 2.9876 -6.38226 0.02 0 0 0 1 1
15026 1 3.19904 -6.37525 0.02 0 0 0 1 1
15027 1 3.02398 -6.20099 0.02 0 0 0 1 1
15028 1 3.24014 -6.19526 0.02 0 0 0 1 1
15029 1 3.40792 -6.3839 0.02 0 0 0 1 1
15030 1 3.61807 -6.39 0.02 0 0 0 1.00001 1
15031 1 3.4469 -6.19601 0.02 0 0 0 1 1
15032 1 3.65086 -6.20869 0.02 0 0 0 1.00001 1
14673 1 4.00703 -6.35607 0.0174887 0.00175435 2.1519e-05 -1.97453e-05 1.00484 0
14674 1 4.01851 -6.15151 0.0176511 0.00228053 1.11624e-05 2.03753e-06 1.00549 0
15033 1 3.82716 -6.38788 0.02 0 0 0 1.00004 1
15034 1 3.84404 -6.18966 0.02 0 0 0 1.00005 1
14658 1 4.49156 -6.36896 0.0169031 0.00448247 -1.89557e-05 -1.41281e-06 1.00559 0
14675 1 4.17599 -6.33877 0.0167628 0.0039891 2.56842e-05 -1.40472e-05 1.00737 0
14677 1 4.19119 -6.14466 0.017471 0.00414203 2.92947e-05 1.02035e-05 1.00616 0
14676 1 4.3471 -6.25546 0.0176674 0.00501453 3.33381e-07 -5.07164e-06 1.00605 0
14678 1 4.36555 -6.05786 0.018325 0.00508583 1.10932e-05 2.44549e-06 1.00506 0
14679 1 4.52662 -6.1797 0.018006 0.00512008 -9.08283e-06 -1.01815e-06 1.00481 0
14661 1 4.64894 -6.40966 0.0155577 0.003662 -1.70614e-05 -2.28341e-07 1.00476 0
14662 1 4.79311 -6.31038 0.015891 0.00374164 -1.47918e-05 -6.35639e-06 1.00431 0
14681 1 4.69513 -6.15177 0.0177144 0.00483719 -1.31039e-05 -6.48328e-06 1.00435 0
14682 1 4.86699 -6.11115 0.0173126 0.00450458 -1.1714e-05 -1.00948e-05 1.00408 0
14668 1 5.10623 -6.52147 0.0103121 0.00142276 -9.50957e-06 -4.90391e-06 1.00332 0
14312 1 5.27002 -6.45516 0.0107224 0.00148331 -7.95918e-06 -4.95285e-06 1.00318 0
14665 1 4.95129 -6.34856 0.014367 0.00288941 -1.31803e-05 -7.36941e-06 1.00397 0
14666 1 5.11753 -6.31537 0.0138325 0.00258408 -1.03462e-05 -7.43554e-06 1.00363 0
14685 1 5.03259 -6.11847 0.0165105 0.00393591 -9.6473e-06 -9.58542e-06 1.00379 0
14686 1 5.16299 -5.98735 0.016996 0.00415863 -5.98358e-06 -9.05936e-06 1.00351 0
14669 1 5.22326 -6.16798 0.0150824 0.00312843 -7.78498e-06 -7.90014e-06 1.00347 0
14314 1 5.44699 -6.4051 0.0107284 0.00147192 -6.53901e-06 -4.26193e-06 1.003 0
14670 1 5.36005 -6.25558 0.0133291 0.00234027 -7.05822e-06 -6.0236e-06 1.00323 0
14672 1 5.5294 -6.19616 0.0132917 0.00229736 -5.90899e-06 -5.00853e-06 1.00301 0
14313 1 5.69325 -6.12056 0.0134819 0.00234059 -5.27679e-06 -4.2344e-06 1.00284 0
14316 1 5.6441 -6.34964 0.0107288 0.00145277 -5.7403e-06 -3.35636e-06 1.00283 0
14317 1 5.86153 -6.09107 0.0131587 0.00216848 -5.02155e-06 -3.3112e-06 1.0027 0
14319 1 5.8247 -6.32443 0.0104013 0.00132084 -5.39672e-06 -2.51575e-06 1.00266 0
13985 1 5.98039 -6.46402 0.0078304 0.000744841 -4.707e-06 -1.28724e-06 1.0024 0