ITEM: TIMESTEP
66000
ITEM: NUMBER OF ATOMS
10891
ITEM: BOX BOUNDS ff ff pp
0.0000000000000000e+00 2.2000000000000000e+01
-1.0000000000000000e+01 1.0000000000000000e+01
-2.0000000000000000e-02 2.0000000000000000e-02
ITEM: ATOMS id type x y vx vy fx fy c_den c_phase
1501 2 2 -10 0 0 0 0 1 4
1551 2 2 -9.8 0 0 0 0 1 4
1601 2 2 -9.6 0 0 0 0 1 4
1502 2 2.2 -10 0 0 0 0 1 4
1503 2 2.4 -10 0 0 0 0 1 4
1552 2 2.2 -9.8 0 0 0 0 1 4
1553 2 2.4 -9.8 0 0 0 0 1 4
1602 2 2.2 -9.6 0 0 0 0 1 4
1603 2 2.4 -9.6 0 0 0 0 1 4
1504 2 2.6 -10 0 0 0 0 1 4
1505 2 2.8 -10 0 0 0 0 1 4
1554 2 2.6 -9.8 0 0 0 0 1 4
1555 2 2.8 -9.8 0 0 0 0 1 4
1604 2 2.6 -9.6 0 0 0 0 1 4
1605 2 2.8 -9.6 0 0 0 0 1 4
1506 2 3 -10 0 0 0 0 1 4
1507 2 3.2 -10 0 0 0 0 1 4
1556 2 3 -9.8 0 0 0 0 1 4
1557 2 3.2 -9.8 0 0 0 0 1 4
1606 2 3 -9.6 0 0 0 0 1 4
1607 2 3.2 -9.6 0 0 0 0 1 4
1508 2 3.4 -10 0 0 0 0 1 4
1509 2 3.6 -10 0 0 0 0 1 4
1558 2 3.4 -9.8 0 0 0 0 1 4
1559 2 3.6 -9.8 0 0 0 0 1 4
1608 2 3.4 -9.6 0 0 0 0 1 4
1609 2 3.6 -9.6 0 0 0 0 1 4
1510 2 3.8 -10 0 0 0 0 1 4
1560 2 3.8 -9.8 0 0 0 0 1 4
1610 2 3.8 -9.6 0 0 0 0 1 4
1511 2 4 -10 0 0 0 0 1 4
1561 2 4 -9.8 0 0 0 0 1 4
1611 2 4 -9.6 0 0 0 0 1 4
1512 2 4.2 -10 0 0 0 0 1 4
1562 2 4.2 -9.8 0 0 0 0 1 4
1612 2 4.2 -9.6 0 0 0 0 1 4
1513 2 4.4 -10 0 0 0 0 1 4
1514 2 4.6 -10 0 0 0 0 1 4
1563 2 4.4 -9.8 0 0 0 0 1 4
1564 2 4.6 -9.8 0 0 0 0 1 4
1613 2 4.4 -9.6 0 0 0 0 1 4
1614 2 4.6 -9.6 0 0 0 0 1 4
1515 2 4.8 -10 0 0 0 0 1 4
1516 2 5 -10 0 0 0 0 1 4
1565 2 4.8 -9.8 0 0 0 0 1 4
1566 2 5 -9.8 0 0 0 0 1 4
1615 2 4.8 -9.6 0 0 0 0 1 4
1616 2 5 -9.6 0 0 0 0 1 4
1517 2 5.2 -10 0 0 0 0 1 4
1518 2 5.4 -10 0 0 0 0 1 4
1567 2 5.2 -9.8 0 0 0 0 1 4
1568 2 5.4 -9.8 0 0 0 0 1 4
1617 2 5.2 -9.6 0 0 0 0 1 4
1618 2 5.4 -9.6 0 0 0 0 1 4
1519 2 5.6 -10 0 0 0 0 1 4
1520 2 5.8 -10 0 0 0 0 1 4
1569 2 5.6 -9.8 0 0 0 0 1 4
1570 2 5.8 -9.8 0 0 0 0 1 4
1619 2 5.6 -9.6 0 0 0 0 1 4
1620 2 5.8 -9.6 0 0 0 0 1 4
1521 2 6 -10 0 0 0 0 1 4
1522 2 6.2 -10 0 0 0 0 1 4
1571 2 6 -9.8 0 0 0 0 1 4
1572 2 6.2 -9.8 0 0 0 0 1 4
1621 2 6 -9.6 0 0 0 0 1 4
1622 2 6.2 -9.6 0 0 0 0 1 4
1523 2 6.4 -10 0 0 0 0 1 4
1524 2 6.6 -10 0 0 0 0 1 4
1573 2 6.4 -9.8 0 0 0 0 1 4
1574 2 6.6 -9.8 0 0 0 0 1 4
1623 2 6.4 -9.6 0 0 0 0 1 4
1624 2 6.6 -9.6 0 0 0 0 1 4
1525 2 6.8 -10 0 0 0 0 1 4
1526 2 7 -10 0 0 0 0 1 4
1575 2 6.8 -9.8 0 0 0 0 1 4
1576 2 7 -9.8 0 0 0 0 1 4
1625 2 6.8 -9.6 0 0 0 0 1 4
1626 2 7 -9.6 0 0 0 0 1 4
1527 2 7.2 -10 0 0 0 0 1 4
1577 2 7.2 -9.8 0 0 0 0 1 4
1627 2 7.2 -9.6 0 0 0 0 1 4
1528 2 7.4 -10 0 0 0 0 1 4
1529 2 7.6 -10 0 0 0 0 1 4
1578 2 7.4 -9.8 0 0 0 0 1 4
1579 2 7.6 -9.8 0 0 0 0 1 4
1628 2 7.4 -9.6 0 0 0 0 1 4
1629 2 7.6 -9.6 0 0 0 0 1 4
1530 2 7.8 -10 0 0 0 0 1 4
1531 2 8 -10 0 0 0 0 1 4
1580 2 7.8 -9.8 0 0 0 0 1 4
1581 2 8 -9.8 0 0 0 0 1 4
1630 2 7.8 -9.6 0 0 0 0 1 4
1631 2 8 -9.6 0 0 0 0 1 4
1532 2 8.2 -10 0 0 0 0 1 4
1533 2 8.4 -10 0 0 0 0 1 4
1582 2 8.2 -9.8 0 0 0 0 1 4
1583 2 8.4 -9.8 0 0 0 0 1 4
1632 2 8.2 -9.6 0 0 0 0 1 4
1633 2 8.4 -9.6 0 0 0 0 1 4
1534 2 8.6 -10 0 0 0 0 1 4
1535 2 8.8 -10 0 0 0 0 1 4
1584 2 8.6 -9.8 0 0 0 0 1 4
1585 2 8.8 -9.8 0 0 0 0 1 4
1634 2 8.6 -9.6 0 0 0 0 1 4
1635 2 8.8 -9.6 0 0 0 0 1 4
1536 2 9 -10 0 0 0 0 1 4
1537 2 9.2 -10 0 0 0 0 1 4
1586 2 9 -9.8 0 0 0 0 1 4
1587 2 9.2 -9.8 0 0 0 0 1 4
1636 2 9 -9.6 0 0 0 0 1 4
1637 2 9.2 -9.6 0 0 0 0 1 4
1538 2 9.4 -10 0 0 0 0 1 4
1539 2 9.6 -10 0 0 0 0 1 4
1588 2 9.4 -9.8 0 0 0 0 1 4
1589 2 9.6 -9.8 0 0 0 0 1 4
1638 2 9.4 -9.6 0 0 0 0 1 4
1639 2 9.6 -9.6 0 0 0 0 1 4
1540 2 9.8 -10 0 0 0 0 1 4
1590 2 9.8 -9.8 0 0 0 0 1 4
1640 2 9.8 -9.6 0 0 0 0 1 4
1541 2 10 -10 0 0 0 0 1 4
1591 2 10 -9.8 0 0 0 0 1 4
1641 2 10 -9.6 0 0 0 0 1 4
1542 2 10.2 -10 0 0 0 0 1 4
1592 2 10.2 -9.8 0 0 0 0 1 4
1642 2 10.2 -9.6 0 0 0 0 1 4
1543 2 10.4 -10 0 0 0 0 1 4
1593 2 10.4 -9.8 0 0 0 0 1 4
1643 2 10.4 -9.6 0 0 0 0 1 4
1544 2 10.6 -10 0 0 0 0 1 4
1594 2 10.6 -9.8 0 0 0 0 1 4
1644 2 10.6 -9.6 0 0 0 0 1 4
1545 2 10.8 -10 0 0 0 0 1 4
1595 2 10.8 -9.8 0 0 0 0 1 4
1645 2 10.8 -9.6 0 0 0 0 1 4
1651 2 2 -9.4 0 0 0 0 1 4
1701 2 2 -9.2 0 0 0 0 1 4
1652 2 2.2 -9.4 0 0 0 0 1 4
1653 2 2.4 -9.4 0 0 0 0 1 4
1702 2 2.2 -9.2 0 0 0 0 1 4
1703 2 2.4 -9.2 0 0 0 0 1 4
1654 2 2.6 -9.4 0 0 0 0 1 4
1655 2 2.8 -9.4 0 0 0 0 1 4
1704 2 2.6 -9.2 0 0 0 0 1 4
1705 2 2.8 -9.2 0 0 0 0 1 4
1656 2 3 -9.4 0 0 0 0 1 4
1657 2 3.2 -9.4 0 0 0 0 1 4
1706 2 3 -9.2 0 0 0 0 1 4
1707 2 3.2 -9.2 0 0 0 0 1 4
1658 2 3.4 -9.4 0 0 0 0 1 4
1659 2 3.6 -9.4 0 0 0 0 1 4
1708 2 3.4 -9.2 0 0 0 0 1 4
1709 2 3.6 -9.2 0 0 0 0 1 4
1660 2 3.8 -9.4 0 0 0 0 1 4
1710 2 3.8 -9.2 0 0 0 0 1 4
1661 2 4 -9.4 0 0 0 0 1 4
1711 2 4 -9.2 0 0 0 0 1 4
1662 2 4.2 -9.4 0 0 0 0 1 4
1712 2 4.2 -9.2 0 0 0 0 1 4
1663 2 4.4 -9.4 0 0 0 0 1 4
1664 2 4.6 -9.4 0 0 0 0 1 4
1713 2 4.4 -9.2 0 0 0 0 1 4
1714 2 4.6 -9.2 0 0 0 0 1 4
1665 2 4.8 -9.4 0 0 0 0 1 4
1666 2 5 -9.4 0 0 0 0 1 4
1715 2 4.8 -9.2 0 0 0 0 1 4
1716 2 5 -9.2 0 0 0 0 1 4
1667 2 5.2 -9.4 0 0 0 0 1 4
1668 2 5.4 -9.4 0 0 0 0 1 4
1717 2 5.2 -9.2 0 0 0 0 1 4
1718 2 5.4 -9.2 0 0 0 0 1 4
1669 2 5.6 -9.4 0 0 0 0 1 4
1670 2 5.8 -9.4 0 0 0 0 1 4
1719 2 5.6 -9.2 0 0 0 0 1 4
1720 2 5.8 -9.2 0 0 0 0 1 4
1671 2 6 -9.4 0 0 0 0 1 4
1672 2 6.2 -9.4 0 0 0 0 1 4
1721 2 6 -9.2 0 0 0 0 1 4
1722 2 6.2 -9.2 0 0 0 0 1 4
1673 2 6.4 -9.4 0 0 0 0 1 4
1674 2 6.6 -9.4 0 0 0 0 1 4
1723 2 6.4 -9.2 0 0 0 0 1 4
1724 2 6.6 -9.2 0 0 0 0 1 4
1675 2 6.8 -9.4 0 0 0 0 1 4
1676 2 7 -9.4 0 0 0 0 1 4
1725 2 6.8 -9.2 0 0 0 0 1 4
1726 2 7 -9.2 0 0 0 0 1 4
1677 2 7.2 -9.4 0 0 0 0 1 4
1727 2 7.2 -9.2 0 0 0 0 1 4
1678 2 7.4 -9.4 0 0 0 0 1 4
1679 2 7.6 -9.4 0 0 0 0 1 4
1728 2 7.4 -9.2 0 0 0 0 1 4
1729 2 7.6 -9.2 0 0 0 0 1 4
1680 2 7.8 -9.4 0 0 0 0 1 4
1681 2 8 -9.4 0 0 0 0 1 4
1730 2 7.8 -9.2 0 0 0 0 1 4
1731 2 8 -9.2 0 0 0 0 1 4
1682 2 8.2 -9.4 0 0 0 0 1 4
1683 2 8.4 -9.4 0 0 0 0 1 4
1732 2 8.2 -9.2 0 0 0 0 1 4
1733 2 8.4 -9.2 0 0 0 0 1 4
1684 2 8.6 -9.4 0 0 0 0 1 4
1685 2 8.8 -9.4 0 0 0 0 1 4
1734 2 8.6 -9.2 0 0 0 0 1 4
1735 2 8.8 -9.2 0 0 0 0 1 4
1686 2 9 -9.4 0 0 0 0 1 4
1687 2 9.2 -9.4 0 0 0 0 1 4
1736 2 9 -9.2 0 0 0 0 1 4
1737 2 9.2 -9.2 0 0 0 0 1 4
1688 2 9.4 -9.4 0 0 0 0 1 4
1689 2 9.6 -9.4 0 0 0 0 1 4
1738 2 9.4 -9.2 0 0 0 0 1 4
1739 2 9.6 -9.2 0 0 0 0 1 4
1690 2 9.8 -9.4 0 0 0 0 1 4
1740 2 9.8 -9.2 0 0 0 0 1 4
1691 2 10 -9.4 0 0 0 0 1 4
1741 2 10 -9.2 0 0 0 0 1 4
1692 2 10.2 -9.4 0 0 0 0 1 4
1742 2 10.2 -9.2 0 0 0 0 1 4
1693 2 10.4 -9.4 0 0 0 0 1 4
1743 2 10.4 -9.2 0 0 0 0 1 4
1694 2 10.6 -9.4 0 0 0 0 1 4
1744 2 10.6 -9.2 0 0 0 0 1 4
1695 2 10.8 -9.4 0 0 0 0 1 4
1745 2 10.8 -9.2 0 0 0 0 1 4
1751 2 2 -9 0 0 0 0 1 4
1801 2 2 -8.8 0 0 0 0 1 4
1752 2 2.2 -9 0 0 0 0 1 4
1753 2 2.4 -9 0 0 0 0 1 4
1802 2 2.2 -8.8 0 0 0 0 1 4
1803 2 2.4 -8.8 0 0 0 0 1 4
1754 2 2.6 -9 0 0 0 0 1 4
1755 2 2.8 -9 0 0 0 0 1 4
1804 2 2.6 -8.8 0 0 0 0 1 4
1805 2 2.8 -8.8 0 0 0 0 1 4
1756 2 3 -9 0 0 0 0 1 4
1757 2 3.2 -9 0 0 0 0 1 4
1806 2 3 -8.8 0 0 0 0 1 4
1807 2 3.2 -8.8 0 0 0 0 1 4
1758 2 3.4 -9 0 0 0 0 1 4
1759 2 3.6 -9 0 0 0 0 1 4
1808 2 3.4 -8.8 0 0 0 0 1 4
1809 2 3.6 -8.8 0 0 0 0 1 4
1760 2 3.8 -9 0 0 0 0 1 4
1810 2 3.8 -8.8 0 0 0 0 1 4
1761 2 4 -9 0 0 0 0 1 4
1811 2 4 -8.8 0 0 0 0 1 4
1762 2 4.2 -9 0 0 0 0 1 4
1812 2 4.2 -8.8 0 0 0 0 1 4
1763 2 4.4 -9 0 0 0 0 1 4
1764 2 4.6 -9 0 0 0 0 1 4
1813 2 4.4 -8.8 0 0 0 0 1 4
1814 2 4.6 -8.8 0 0 0 0 1 4
1765 2 4.8 -9 0 0 0 0 1 4
1766 2 5 -9 0 0 0 0 1 4
1815 2 4.8 -8.8 0 0 0 0 1 4
1816 2 5 -8.8 0 0 0 0 1 4
1767 2 5.2 -9 0 0 0 0 1 4
1768 2 5.4 -9 0 0 0 0 1 4
1817 2 5.2 -8.8 0 0 0 0 1 4
1818 2 5.4 -8.8 0 0 0 0 1 4
1769 2 5.6 -9 0 0 0 0 1 4
1770 2 5.8 -9 0 0 0 0 1 4
1819 2 5.6 -8.8 0 0 0 0 1 4
1820 2 5.8 -8.8 0 0 0 0 1 4
1771 2 6 -9 0 0 0 0 1 4
1772 2 6.2 -9 0 0 0 0 1 4
1821 2 6 -8.8 0 0 0 0 1 4
1822 2 6.2 -8.8 0 0 0 0 1 4
1773 2 6.4 -9 0 0 0 0 1 4
1774 2 6.6 -9 0 0 0 0 1 4
1823 2 6.4 -8.8 0 0 0 0 1 4
1824 2 6.6 -8.8 0 0 0 0 1 4
1775 2 6.8 -9 0 0 0 0 1 4
1776 2 7 -9 0 0 0 0 1 4
1825 2 6.8 -8.8 0 0 0 0 1 4
1826 2 7 -8.8 0 0 0 0 1 4
1777 2 7.2 -9 0 0 0 0 1 4
1827 2 7.2 -8.8 0 0 0 0 1 4
1778 2 7.4 -9 0 0 0 0 1 4
1779 2 7.6 -9 0 0 0 0 1 4
1828 2 7.4 -8.8 0 0 0 0 1 4
1829 2 7.6 -8.8 0 0 0 0 1 4
1780 2 7.8 -9 0 0 0 0 1 4
1781 2 8 -9 0 0 0 0 1 4
1830 2 7.8 -8.8 0 0 0 0 1 4
1831 2 8 -8.8 0 0 0 0 1 4
1782 2 8.2 -9 0 0 0 0 1 4
1783 2 8.4 -9 0 0 0 0 1 4
1832 2 8.2 -8.8 0 0 0 0 1 4
1833 2 8.4 -8.8 0 0 0 0 1 4
1784 2 8.6 -9 0 0 0 0 1 4
1785 2 8.8 -9 0 0 0 0 1 4
1834 2 8.6 -8.8 0 0 0 0 1 4
1835 2 8.8 -8.8 0 0 0 0 1 4
1786 2 9 -9 0 0 0 0 1 4
1787 2 9.2 -9 0 0 0 0 1 4
1836 2 9 -8.8 0 0 0 0 1 4
1837 2 9.2 -8.8 0 0 0 0 1 4
1788 2 9.4 -9 0 0 0 0 1 4
1789 2 9.6 -9 0 0 0 0 1 4
1838 2 9.4 -8.8 0 0 0 0 1 4
1839 2 9.6 -8.8 0 0 0 0 1 4
1790 2 9.8 -9 0 0 0 0 1 4
1840 2 9.8 -8.8 0 0 0 0 1 4
1791 2 10 -9 0 0 0 0 1 4
1841 2 10 -8.8 0 0 0 0 1 4
1792 2 10.2 -9 0 0 0 0 1 4
1842 2 10.2 -8.8 0 0 0 0 1 4
1793 2 10.4 -9 0 0 0 0 1 4
1843 2 10.4 -8.8 0 0 0 0 1 4
1794 2 10.6 -9 0 0 0 0 1 4
1844 2 10.6 -8.8 0 0 0 0 1 4
1795 2 10.8 -9 0 0 0 0 1 4
1845 2 10.8 -8.8 0 0 0 0 1 4
1851 2 2 -8.6 0 0 0 0 1 4
1901 2 2 -8.4 0 0 0 0 1 4
1852 2 2.2 -8.6 0 0 0 0 1 4
1853 2 2.4 -8.6 0 0 0 0 1 4
1902 2 2.2 -8.4 0 0 0 0 1 4
1903 2 2.4 -8.4 0 0 0 0 1 4
1854 2 2.6 -8.6 0 0 0 0 1 4
1855 2 2.8 -8.6 0 0 0 0 1 4
1904 2 2.6 -8.4 0 0 0 0 1 4
1905 2 2.8 -8.4 0 0 0 0 1 4
1856 2 3 -8.6 0 0 0 0 1 4
1857 2 3.2 -8.6 0 0 0 0 1 4
1906 2 3 -8.4 0 0 0 0 1 4
1907 2 3.2 -8.4 0 0 0 0 1 4
1858 2 3.4 -8.6 0 0 0 0 1 4
1859 2 3.6 -8.6 0 0 0 0 1 4
1908 2 3.4 -8.4 0 0 0 0 1 4
1909 2 3.6 -8.4 0 0 0 0 1 4
1860 2 3.8 -8.6 0 0 0 0 1 4
1910 2 3.8 -8.4 0 0 0 0 1 4
1861 2 4 -8.6 0 0 0 0 1 4
1911 2 4 -8.4 0 0 0 0 1 4
1862 2 4.2 -8.6 0 0 0 0 1 4
1912 2 4.2 -8.4 0 0 0 0 1 4
1863 2 4.4 -8.6 0 0 0 0 1 4
1864 2 4.6 -8.6 0 0 0 0 1 4
1913 2 4.4 -8.4 0 0 0 0 1 4
1914 2 4.6 -8.4 0 0 0 0 1 4
1865 2 4.8 -8.6 0 0 0 0 1 4
1866 2 5 -8.6 0 0 0 0 1 4
1915 2 4.8 -8.4 0 0 0 0 1 4
1916 2 5 -8.4 0 0 0 0 1 4
1867 2 5.2 -8.6 0 0 0 0 1 4
1868 2 5.4 -8.6 0 0 0 0 1 4
1917 2 5.2 -8.4 0 0 0 0 1 4
1918 2 5.4 -8.4 0 0 0 0 1 4
1869 2 5.6 -8.6 0 0 0 0 1 4
1870 2 5.8 -8.6 0 0 0 0 1 4
1919 2 5.6 -8.4 0 0 0 0 1 4
1920 2 5.8 -8.4 0 0 0 0 1 4
1871 2 6 -8.6 0 0 0 0 1 4
1872 2 6.2 -8.6 0 0 0 0 1 4
1921 2 6 -8.4 0 0 0 0 1 4
1922 2 6.2 -8.4 0 0 0 0 1 4
1873 2 6.4 -8.6 0 0 0 0 1 4
1874 2 6.6 -8.6 0 0 0 0 1 4
1923 2 6.4 -8.4 0 0 0 0 1 4
1924 2 6.6 -8.4 0 0 0 0 1 4
1875 2 6.8 -8.6 0 0 0 0 1 4
1876 2 7 -8.6 0 0 0 0 1 4
1925 2 6.8 -8.4 0 0 0 0 1 4
1926 2 7 -8.4 0 0 0 0 1 4
1877 2 7.2 -8.6 0 0 0 0 1 4
1927 2 7.2 -8.4 0 0 0 0 1 4
1878 2 7.4 -8.6 0 0 0 0 1 4
1879 2 7.6 -8.6 0 0 0 0 1 4
1928 2 7.4 -8.4 0 0 0 0 1 4
1929 2 7.6 -8.4 0 0 0 0 1 4
1880 2 7.8 -8.6 0 0 0 0 1 4
1881 2 8 -8.6 0 0 0 0 1 4
1930 2 7.8 -8.4 0 0 0 0 1 4
1931 2 8 -8.4 0 0 0 0 1 4
1882 2 8.2 -8.6 0 0 0 0 1 4
1883 2 8.4 -8.6 0 0 0 0 1 4
1932 2 8.2 -8.4 0 0 0 0 1 4
1933 2 8.4 -8.4 0 0 0 0 1 4
1884 2 8.6 -8.6 0 0 0 0 1 4
1885 2 8.8 -8.6 0 0 0 0 1 4
1934 2 8.6 -8.4 0 0 0 0 1 4
1935 2 8.8 -8.4 0 0 0 0 1 4
1886 2 9 -8.6 0 0 0 0 1 4
1887 2 9.2 -8.6 0 0 0 0 1 4
1936 2 9 -8.4 0 0 0 0 1 4
1937 2 9.2 -8.4 0 0 0 0 1 4
1888 2 9.4 -8.6 0 0 0 0 1 4
1889 2 9.6 -8.6 0 0 0 0 1 4
1938 2 9.4 -8.4 0 0 0 0 1 4
1939 2 9.6 -8.4 0 0 0 0 1 4
1890 2 9.8 -8.6 0 0 0 0 1 4
1940 2 9.8 -8.4 0 0 0 0 1 4
1891 2 10 -8.6 0 0 0 0 1 4
1941 2 10 -8.4 0 0 0 0 1 4
1892 2 10.2 -8.6 0 0 0 0 1 4
1942 2 10.2 -8.4 0 0 0 0 1 4
1893 2 10.4 -8.6 0 0 0 0 1 4
1943 2 10.4 -8.4 0 0 0 0 1 4
1894 2 10.6 -8.6 0 0 0 0 1 4
1944 2 10.6 -8.4 0 0 0 0 1 4
1895 2 10.8 -8.6 0 0 0 0 1 4
1945 2 10.8 -8.4 0 0 0 0 1 4
1951 2 2 -8.2 0 0 0 0 1 4
2001 2 2 -8 0 0 0 0 1 4
1952 2 2.2 -8.2 0 0 0 0 1 4
1953 2 2.4 -8.2 0 0 0 0 1 4
2002 2 2.2 -8 0 0 0 0 1 4
2003 2 2.4 -8 0 0 0 0 1 4
1954 2 2.6 -8.2 0 0 0 0 1 4
1955 2 2.8 -8.2 0 0 0 0 1 4
2004 2 2.6 -8 0 0 0 0 1 4
2005 2 2.8 -8 0 0 0 0 1 4
1956 2 3 -8.2 0 0 0 0 1 4
1957 2 3.2 -8.2 0 0 0 0 1 4
2006 2 3 -8 0 0 0 0 1 4
2007 2 3.2 -8 0 0 0 0 1 4
1958 2 3.4 -8.2 0 0 0 0 1 4
1959 2 3.6 -8.2 0 0 0 0 1 4
2008 2 3.4 -8 0 0 0 0 1 4
2009 2 3.6 -8 0 0 0 0 1 4
1960 2 3.8 -8.2 0 0 0 0 1 4
2010 2 3.8 -8 0 0 0 0 1 4
1961 2 4 -8.2 0 0 0 0 1 4
2011 2 4 -8 0 0 0 0 1 4
1962 2 4.2 -8.2 0 0 0 0 1 4
2012 2 4.2 -8 0 0 0 0 1 4
1963 2 4.4 -8.2 0 0 0 0 1 4
1964 2 4.6 -8.2 0 0 0 0 1 4
2013 2 4.4 -8 0 0 0 0 1 4
2014 2 4.6 -8 0 0 0 0 1 4
1965 2 4.8 -8.2 0 0 0 0 1 4
1966 2 5 -8.2 0 0 0 0 1 4
2015 2 4.8 -8 0 0 0 0 1 4
2016 2 5 -8 0 0 0 0 1 4
1967 2 5.2 -8.2 0 0 0 0 1 4
1968 2 5.4 -8.2 0 0 0 0 1 4
2017 2 5.2 -8 0 0 0 0 1 4
2018 2 5.4 -8 0 0 0 0 1 4
1969 2 5.6 -8.2 0 0 0 0 1 4
1970 2 5.8 -8.2 0 0 0 0 1 4
2019 2 5.6 -8 0 0 0 0 1 4
2020 2 5.8 -8 0 0 0 0 1 4
1971 2 6 -8.2 0 0 0 0 1 4
1972 2 6.2 -8.2 0 0 0 0 1 4
2021 2 6 -8 0 0 0 0 1 4
2022 2 6.2 -8 0 0 0 0 1 4
1973 2 6.4 -8.2 0 0 0 0 1 4
1974 2 6.6 -8.2 0 0 0 0 1 4
2023 2 6.4 -8 0 0 0 0 1 4
2024 2 6.6 -8 0 0 0 0 1 4
1975 2 6.8 -8.2 0 0 0 0 1 4
1976 2 7 -8.2 0 0 0 0 1 4
2025 2 6.8 -8 0 0 0 0 1 4
2026 2 7 -8 0 0 0 0 1 4
1977 2 7.2 -8.2 0 0 0 0 1 4
2027 2 7.2 -8 0 0 0 0 1 4
1978 2 7.4 -8.2 0 0 0 0 1 4
1979 2 7.6 -8.2 0 0 0 0 1 4
2028 2 7.4 -8 0 0 0 0 1 4
2029 2 7.6 -8 0 0 0 0 1 4
1980 2 7.8 -8.2 0 0 0 0 1 4
1981 2 8 -8.2 0 0 0 0 1 4
2030 2 7.8 -8 0 0 0 0 1 4
2031 2 8 -8 0 0 0 0 1 4
1982 2 8.2 -8.2 0 0 0 0 1 4
1983 2 8.4 -8.2 0 0 0 0 1 4
2032 2 8.2 -8 0 0 0 0 1 4
2033 2 8.4 -8 0 0 0 0 1 4
1984 2 8.6 -8.2 0 0 0 0 1 4
1985 2 8.8 -8.2 0 0 0 0 1 4
2034 2 8.6 -8 0 0 0 0 1 4
2035 2 8.8 -8 0 0 0 0 1 4
1986 2 9 -8.2 0 0 0 0 1 4
1987 2 9.2 -8.2 0 0 0 0 1 4
2036 2 9 -8 0 0 0 0 1 4
2037 2 9.2 -8 0 0 0 0 1 4
1988 2 9.4 -8.2 0 0 0 0 1 4
1989 2 9.6 -8.2 0 0 0 0 1 4
2038 2 9.4 -8 0 0 0 0 1 4
2039 2 9.6 -8 0 0 0 0 1 4
1990 2 9.8 -8.2 0 0 0 0 1 4
2040 2 9.8 -8 0 0 0 0 1 4
1991 2 10 -8.2 0 0 0 0 1 4
2041 2 10 -8 0 0 0 0 1 4
1992 2 10.2 -8.2 0 0 0 0 1 4
2042 2 10.2 -8 0 0 0 0 1 4
1993 2 10.4 -8.2 0 0 0 0 1 4
2043 2 10.4 -8 0 0 0 0 1 4
1994 2 10.6 -8.2 0 0 0 0 1 4
2044 2 10.6 -8 0 0 0 0 1 4
1995 2 10.8 -8.2 0 0 0 0 1 4
2045 2 10.8 -8 0 0 0 0 1 4
2051 2 2 -7.8 0 0 0 0 1 4
2101 2 2 -7.6 0 0 0 0 1 4
2151 2 2 -7.4 0 0 0 0 1.00014 4
2052 2 2.2 -7.8 0 0 0 0 1 4
2053 2 2.4 -7.8 0 0 0 0 1 4
2102 2 2.2 -7.6 0 0 0 0 1 4
2103 2 2.4 -7.6 0 0 0 0 1 4
2152 2 2.2 -7.4 0 0 0 0 0.999948 4
2153 2 2.4 -7.4 0 0 0 0 0.999958 4
2054 2 2.6 -7.8 0 0 0 0 1 4
2055 2 2.8 -7.8 0 0 0 0 1 4
2104 2 2.6 -7.6 0 0 0 0 1 4
2105 2 2.8 -7.6 0 0 0 0 1 4
2154 2 2.6 -7.4 0 0 0 0 1.00003 4
2155 2 2.8 -7.4 0 0 0 0 0.999997 4
2056 2 3 -7.8 0 0 0 0 1 4
2057 2 3.2 -7.8 0 0 0 0 1 4
2106 2 3 -7.6 0 0 0 0 1 4
2107 2 3.2 -7.6 0 0 0 0 1 4
2156 2 3 -7.4 0 0 0 0 0.999984 4
2157 2 3.2 -7.4 0 0 0 0 1 4
2058 2 3.4 -7.8 0 0 0 0 1 4
2059 2 3.6 -7.8 0 0 0 0 1 4
2108 2 3.4 -7.6 0 0 0 0 1 4
2109 2 3.6 -7.6 0 0 0 0 1 4
2158 2 3.4 -7.4 0 0 0 0 1.00001 4
2159 2 3.6 -7.4 0 0 0 0 1.00003 4
2060 2 3.8 -7.8 0 0 0 0 1 4
2110 2 3.8 -7.6 0 0 0 0 1 4
2160 2 3.8 -7.4 0 0 0 0 1.0002 4
2061 2 4 -7.8 0 0 0 0 1 4
2111 2 4 -7.6 0 0 0 0 1 4
2161 2 4 -7.4 0 0 0 0 1.0111 4
2062 2 4.2 -7.8 0 0 0 0 1 4
2112 2 4.2 -7.6 0 0 0 0 1 4
2162 2 4.2 -7.4 0 0 0 0 1.01138 4
2063 2 4.4 -7.8 0 0 0 0 1 4
2064 2 4.6 -7.8 0 0 0 0 1 4
2113 2 4.4 -7.6 0 0 0 0 1 4
2114 2 4.6 -7.6 0 0 0 0 1 4
2163 2 4.4 -7.4 0 0 0 0 1.00427 4
2164 2 4.6 -7.4 0 0 0 0 1.00333 4
2065 2 4.8 -7.8 0 0 0 0 1 4
2066 2 5 -7.8 0 0 0 0 1 4
2115 2 4.8 -7.6 0 0 0 0 1 4
2116 2 5 -7.6 0 0 0 0 1 4
2165 2 4.8 -7.4 0 0 0 0 1.00256 4
2166 2 5 -7.4 0 0 0 0 1.002 4
2067 2 5.2 -7.8 0 0 0 0 1 4
2068 2 5.4 -7.8 0 0 0 0 1 4
2117 2 5.2 -7.6 0 0 0 0 1 4
2118 2 5.4 -7.6 0 0 0 0 1 4
2167 2 5.2 -7.4 0 0 0 0 1.00189 4
2168 2 5.4 -7.4 0 0 0 0 1.0019 4
2069 2 5.6 -7.8 0 0 0 0 1 4
2070 2 5.8 -7.8 0 0 0 0 1 4
2119 2 5.6 -7.6 0 0 0 0 1 4
2120 2 5.8 -7.6 0 0 0 0 1 4
2169 2 5.6 -7.4 0 0 0 0 1.002 4
2170 2 5.8 -7.4 0 0 0 0 1.00186 4
2071 2 6 -7.8 0 0 0 0 1 4
2072 2 6.2 -7.8 0 0 0 0 1 4
2121 2 6 -7.6 0 0 0 0 1 4
2122 2 6.2 -7.6 0 0 0 0 1 4
2171 2 6 -7.4 0 0 0 0 1.00151 4
2172 2 6.2 -7.4 0 0 0 0 1.00161 4
2073 2 6.4 -7.8 0 0 0 0 1 4
2074 2 6.6 -7.8 0 0 0 0 1 4
2123 2 6.4 -7.6 0 0 0 0 1 4
2124 2 6.6 -7.6 0 0 0 0 1 4
2173 2 6.4 -7.4 0 0 0 0 1.00173 4
2174 2 6.6 -7.4 0 0 0 0 1.00152 4
2075 2 6.8 -7.8 0 0 0 0 1 4
2076 2 7 -7.8 0 0 0 0 1 4
2125 2 6.8 -7.6 0 0 0 0 1 4
2126 2 7 -7.6 0 0 0 0 1 4
2175 2 6.8 -7.4 0 0 0 0 1.00155 4
2176 2 7 -7.4 0 0 0 0 1.00163 4
2077 2 7.2 -7.8 0 0 0 0 1 4
2127 2 7.2 -7.6 0 0 0 0 1 4
2177 2 7.2 -7.4 0 0 0 0 1.00164 4
2078 2 7.4 -7.8 0 0 0 0 1 4
2079 2 7.6 -7.8 0 0 0 0 1 4
2128 2 7.4 -7.6 0 0 0 0 1 4
2129 2 7.6 -7.6 0 0 0 0 1 4
2178 2 7.4 -7.4 0 0 0 0 1.00149 4
2179 2 7.6 -7.4 0 0 0 0 1.00159 4
2080 2 7.8 -7.8 0 0 0 0 1 4
2081 2 8 -7.8 0 0 0 0 1 4
2130 2 7.8 -7.6 0 0 0 0 1 4
2131 2 8 -7.6 0 0 0 0 1 4
2180 2 7.8 -7.4 0 0 0 0 1.00145 4
2181 2 8 -7.4 0 0 0 0 1.00151 4
2082 2 8.2 -7.8 0 0 0 0 1 4
2083 2 8.4 -7.8 0 0 0 0 1 4
2132 2 8.2 -7.6 0 0 0 0 1 4
2133 2 8.4 -7.6 0 0 0 0 1 4
2182 2 8.2 -7.4 0 0 0 0 1.00141 4
2183 2 8.4 -7.4 0 0 0 0 1.00149 4
2084 2 8.6 -7.8 0 0 0 0 1 4
2085 2 8.8 -7.8 0 0 0 0 1 4
2134 2 8.6 -7.6 0 0 0 0 1 4
2135 2 8.8 -7.6 0 0 0 0 1 4
2184 2 8.6 -7.4 0 0 0 0 1.00149 4
2185 2 8.8 -7.4 0 0 0 0 1.00147 4
2086 2 9 -7.8 0 0 0 0 1 4
2087 2 9.2 -7.8 0 0 0 0 1 4
2136 2 9 -7.6 0 0 0 0 1 4
2137 2 9.2 -7.6 0 0 0 0 1 4
2186 2 9 -7.4 0 0 0 0 1.0015 4
2187 2 9.2 -7.4 0 0 0 0 1.00147 4
2088 2 9.4 -7.8 0 0 0 0 1 4
2089 2 9.6 -7.8 0 0 0 0 1 4
2138 2 9.4 -7.6 0 0 0 0 1 4
2139 2 9.6 -7.6 0 0 0 0 1 4
2188 2 9.4 -7.4 0 0 0 0 1.0014 4
2189 2 9.6 -7.4 0 0 0 0 1.00134 4
2090 2 9.8 -7.8 0 0 0 0 1 4
2140 2 9.8 -7.6 0 0 0 0 1 4
2190 2 9.8 -7.4 0 0 0 0 1.00131 4
2091 2 10 -7.8 0 0 0 0 1 4
2141 2 10 -7.6 0 0 0 0 1 4
2191 2 10 -7.4 0 0 0 0 1.00135 4
2092 2 10.2 -7.8 0 0 0 0 1 4
2142 2 10.2 -7.6 0 0 0 0 1 4
2192 2 10.2 -7.4 0 0 0 0 1.00127 4
2093 2 10.4 -7.8 0 0 0 0 1 4
2143 2 10.4 -7.6 0 0 0 0 1 4
2193 2 10.4 -7.4 0 0 0 0 1.00139 4
2094 2 10.6 -7.8 0 0 0 0 1 4
2144 2 10.6 -7.6 0 0 0 0 1 4
2194 2 10.6 -7.4 0 0 0 0 1.00117 4
2095 2 10.8 -7.8 0 0 0 0 1 4
2145 2 10.8 -7.6 0 0 0 0 1 4
2195 2 10.8 -7.4 0 0 0 0 1.00125 4
2201 2 2 -7.2 0 0 0 0 1.00013 4
2251 2 2 -7 0 0 0 0 1.00011 4
2202 2 2.2 -7.2 0 0 0 0 0.999975 4
2203 2 2.4 -7.2 0 0 0 0 0.999973 4
2252 2 2.2 -7 0 0 0 0 0.999985 4
2253 2 2.4 -7 0 0 0 0 0.999976 4
2204 2 2.6 -7.2 0 0 0 0 1.00001 4
2205 2 2.8 -7.2 0 0 0 0 1 4
2254 2 2.6 -7 0 0 0 0 1 4
2255 2 2.8 -7 0 0 0 0 1 4
2206 2 3 -7.2 0 0 0 0 0.99999 4
2207 2 3.2 -7.2 0 0 0 0 0.999999 4
2256 2 3 -7 0 0 0 0 0.999993 4
2257 2 3.2 -7 0 0 0 0 0.999999 4
2208 2 3.4 -7.2 0 0 0 0 1.00001 4
2209 2 3.6 -7.2 0 0 0 0 1.00009 4
2258 2 3.4 -7 0 0 0 0 1.00001 4
2259 2 3.6 -7 0 0 0 0 1.0003 4
2210 2 3.8 -7.2 0 0 0 0 1.00279 4
2260 2 3.8 -7 0 0 0 0 1.00351 4
2211 2 4 -7.2 0 0 0 0 1.00974 4
2261 2 4 -7 0 0 0 0 1.0091 4
2212 2 4.2 -7.2 0 0 0 0 1.0108 4
2262 2 4.2 -7 0 0 0 0 1.00987 4
2213 2 4.4 -7.2 0 0 0 0 1.00576 4
2214 2 4.6 -7.2 0 0 0 0 1.00354 4
2263 2 4.4 -7 0 0 0 0 1.00609 4
2264 2 4.6 -7 0 0 0 0 1.0038 4
2215 2 4.8 -7.2 0 0 0 0 1.00276 4
2216 2 5 -7.2 0 0 0 0 1.00231 4
2265 2 4.8 -7 0 0 0 0 1.00304 4
2266 2 5 -7 0 0 0 0 1.00262 4
2217 2 5.2 -7.2 0 0 0 0 1.00217 4
2218 2 5.4 -7.2 0 0 0 0 1.00217 4
2267 2 5.2 -7 0 0 0 0 1.00242 4
2268 2 5.4 -7 0 0 0 0 1.00237 4
2219 2 5.6 -7.2 0 0 0 0 1.00215 4
2220 2 5.8 -7.2 0 0 0 0 1.00201 4
2269 2 5.6 -7 0 0 0 0 1.00229 4
2270 2 5.8 -7 0 0 0 0 1.00213 4
2221 2 6 -7.2 0 0 0 0 1.00173 4
2222 2 6.2 -7.2 0 0 0 0 1.00174 4
2271 2 6 -7 0 0 0 0 1.00189 4
2272 2 6.2 -7 0 0 0 0 1.00187 4
2223 2 6.4 -7.2 0 0 0 0 1.00176 4
2224 2 6.6 -7.2 0 0 0 0 1.00163 4
2273 2 6.4 -7 0 0 0 0 1.00184 4
2274 2 6.6 -7 0 0 0 0 1.00175 4
2225 2 6.8 -7.2 0 0 0 0 1.00165 4
2226 2 7 -7.2 0 0 0 0 1.00169 4
2275 2 6.8 -7 0 0 0 0 1.00174 4
2276 2 7 -7 0 0 0 0 1.00176 4
2227 2 7.2 -7.2 0 0 0 0 1.00166 4
2277 2 7.2 -7 0 0 0 0 1.00171 4
2228 2 7.4 -7.2 0 0 0 0 1.00158 4
2229 2 7.6 -7.2 0 0 0 0 1.00163 4
2278 2 7.4 -7 0 0 0 0 1.00166 4
2279 2 7.6 -7 0 0 0 0 1.00167 4
2230 2 7.8 -7.2 0 0 0 0 1.00155 4
2231 2 8 -7.2 0 0 0 0 1.00155 4
2280 2 7.8 -7 0 0 0 0 1.0016 4
2281 2 8 -7 0 0 0 0 1.00159 4
2232 2 8.2 -7.2 0 0 0 0 1.00149 4
2233 2 8.4 -7.2 0 0 0 0 1.00152 4
2282 2 8.2 -7 0 0 0 0 1.00155 4
2283 2 8.4 -7 0 0 0 0 1.00156 4
2234 2 8.6 -7.2 0 0 0 0 1.00155 4
2235 2 8.8 -7.2 0 0 0 0 1.00152 4
2284 2 8.6 -7 0 0 0 0 1.00159 4
2285 2 8.8 -7 0 0 0 0 1.00156 4
2236 2 9 -7.2 0 0 0 0 1.00153 4
2237 2 9.2 -7.2 0 0 0 0 1.00149 4
2286 2 9 -7 0 0 0 0 1.00155 4
2287 2 9.2 -7 0 0 0 0 1.00151 4
2238 2 9.4 -7.2 0 0 0 0 1.00143 4
2239 2 9.6 -7.2 0 0 0 0 1.00139 4
2288 2 9.4 -7 0 0 0 0 1.00147 4
2289 2 9.6 -7 0 0 0 0 1.00143 4
2240 2 9.8 -7.2 0 0 0 0 1.00136 4
2290 2 9.8 -7 0 0 0 0 1.0014 4
2241 2 10 -7.2 0 0 0 0 1.00134 4
2291 2 10 -7 0 0 0 0 1.00138 4
2242 2 10.2 -7.2 0 0 0 0 1.00132 4
2292 2 10.2 -7 0 0 0 0 1.00135 4
2243 2 10.4 -7.2 0 0 0 0 1.0014 4
2293 2 10.4 -7 0 0 0 0 1.00139 4
2244 2 10.6 -7.2 0 0 0 0 1.00126 4
2294 2 10.6 -7 0 0 0 0 1.00131 4
2245 2 10.8 -7.2 0 0 0 0 1.00129 4
2295 2 10.8 -7 0 0 0 0 1.00132 4
14651 1 0.401083 -6.74262 0.02 0 0 0 1 1
14652 1 0.403401 -6.55507 0.02 0 0 0 1 1
14653 1 0.610206 -6.74969 0.02 0 0 0 1 1
14654 1 0.817064 -6.75288 0.02 0 0 0 1 1
14656 1 0.605102 -6.56943 0.02 0 0 0 1 1
14657 1 0.805062 -6.56401 0.02 0 0 0 1 1
14655 1 1.00314 -6.71041 0.02 0 0 0 1 1
14658 1 1.00173 -6.524 0.02 0 0 0 1 1
14659 1 1.18652 -6.75366 0.02 0 0 0 1 1
14661 1 1.19484 -6.55369 0.02 0 0 0 1 1
14660 1 1.37833 -6.73394 0.02 0 0 0 1 1
14662 1 1.38841 -6.54807 0.02 0 0 0 1 1
14663 1 1.57535 -6.7464 0.02 0 0 0 1.00003 1
14665 1 1.58184 -6.55498 0.02 0 0 0 1 1
14664 1 1.7752 -6.76166 0.02 0 0 0 1.00016 1
14666 1 1.77589 -6.57616 0.02 0 0 0 1.00002 1
14667 1 1.97653 -6.74699 0.02 0 0 0 1.00007 1
14669 1 1.97272 -6.55781 0.02 0 0 0 1.00001 1
14668 1 2.17023 -6.72997 0.02 0 0 0 0.999962 1
14670 1 2.17549 -6.55307 0.02 0 0 0 0.999998 1
14671 1 2.36574 -6.76181 0.02 0 0 0 0.999976 1
14672 1 2.38518 -6.57766 0.02 0 0 0 1 1
14312 1 2.57579 -6.76109 0.02 0 0 0 1.00001 1
14313 1 2.59612 -6.57974 0.02 0 0 0 1 1
14314 1 2.78666 -6.74254 0.02 0 0 0 1 1
14316 1 2.81145 -6.56775 0.02 0 0 0 1 1
14315 1 2.99907 -6.7662 0.02 0 0 0 0.999992 1
14317 1 3.01712 -6.57957 0.02 0 0 0 1 1
14318 1 3.22345 -6.76418 0.02 0 0 0 1 1
14320 1 3.22314 -6.58622 0.02 0 0 0 0.999998 1
14319 1 3.43622 -6.75047 0.02 0 0 0 1 1
14321 1 3.43301 -6.5729 0.02 0 0 0 1 1
14322 1 3.63865 -6.74763 0.02 0 0 0 1.00002 1
14323 1 3.64727 -6.56684 0.02 0 0 0 1.00002 1
14324 1 3.84174 -6.75299 0.02 0 0 0 1.00011 1
14325 1 4.00919 -6.73238 0.0120921 0.00169106 9.94158e-06 1.07972e-05 1.01144 0
14326 1 3.85655 -6.57075 0.02 0 0 0 1.0001 1
14327 1 4.03119 -6.54481 0.016395 0.00306589 6.70849e-06 1.39583e-05 1.0105 0
13985 1 4.28081 -6.66642 0.0116736 0.00200514 1.81704e-05 8.49038e-06 1.00748 0
13986 1 4.37033 -6.46539 0.0159945 0.00329783 1.55332e-05 1.15573e-05 1.00625 0
14328 1 4.15368 -6.76225 0.00892459 0.00110338 1.70594e-05 6.584e-06 1.01179 0
14329 1 4.19707 -6.50659 0.016077 0.00351257 1.53619e-05 1.53711e-05 1.009 0
13987 1 4.43009 -6.66036 0.0107116 0.00145991 1.5373e-05 3.05269e-06 1.00504 0
13988 1 4.58151 -6.55657 0.0125561 0.00196193 1.36524e-05 2.7835e-06 1.00438 0
13991 1 4.54376 -6.77385 0.00629294 0.000627469 9.28257e-06 -5.67373e-07 1.00439 0
13992 1 4.7377 -6.58497 0.0105278 0.0013042 1.0613e-05 -4.25089e-07 1.00378 0
13996 1 4.77425 -6.74151 0.00577684 0.000432934 7.71096e-06 -2.37672e-06 1.00363 0
13995 1 4.94194 -6.53725 0.0103101 0.0011708 7.80911e-06 -9.39016e-07 1.00347 0
13999 1 5.11557 -6.51483 0.00983286 0.00100962 4.56535e-06 -1.19954e-06 1.00311 0
14002 1 4.94746 -6.73342 0.00515434 0.00027355 6.30333e-06 -1.94864e-06 1.00324 0
13631 1 5.12363 -6.68561 0.00573096 0.000340752 4.78958e-06 -1.27375e-06 1.00275 0
13634 1 5.33445 -6.59466 0.0072055 0.000569663 1.5316e-06 -8.37477e-07 1.00261 0
13638 1 5.26613 -6.78041 0.00346431 4.53461e-05 3.0691e-06 -8.37012e-07 1.00281 0
13642 1 5.49646 -6.62093 0.00608119 0.000436148 -2.51918e-07 -7.59432e-07 1.0024 0
13649 1 5.69969 -6.5928 0.00611774 0.00044815 -1.41621e-06 -7.88306e-07 1.00231 0
13276 1 5.57145 -6.77256 0.00303894 8.20799e-05 3.89854e-07 -4.00857e-07 1.00254 0
13272 1 5.95086 -6.58605 0.00567696 0.000359481 -1.30498e-06 -9.03003e-07 1.00208 0
12923 1 5.79182 -6.74458 0.00315367 9.09162e-05 -2.55264e-07 -4.06759e-07 1.00235 0
13280 1 6.15605 -6.54045 0.00602164 0.000375684 -1.30325e-06 -1.01977e-06 1.00205 0
12927 1 6.01645 -6.72906 0.00308067 7.21597e-05 -1.3487e-07 -5.41871e-07 1.00203 0
12934 1 6.31324 -6.58527 0.0050237 0.000261407 -8.67394e-07 -8.8864e-07 1.00194 0
12585 1 6.20332 -6.77079 0.00235446 9.17833e-06 -2.66464e-08 -5.01246e-07 1.00209 0
12592 1 6.42943 -6.69263 0.00321961 9.25929e-05 -2.76983e-07 -5.81396e-07 1.00189 0
12943 1 6.69122 -6.57106 0.00471296 0.000237274 -1.32847e-06 -5.33018e-07 1.00183 0
12248 1 6.58878 -6.74114 0.00242517 2.20829e-05 -3.3632e-07 -4.06036e-07 1.00193 0
11919 1 6.78808 -6.74161 0.00226105 2.40238e-05 -6.44393e-07 -2.43858e-07 1.00186 0
12936 1 6.87646 -6.54874 0.00481048 0.000223824 -1.8319e-06 -3.51145e-07 1.0018 0
12254 1 7.03708 -6.58992 0.00409239 0.000156914 -1.92292e-06 -1.55939e-07 1.00177 0
11924 1 7.2265 -6.594 0.00388454 0.000138476 -2.07581e-06 -6.63202e-08 1.00171 0
11538 1 7.01826 -6.77245 0.00186395 8.94847e-06 -9.00068e-07 -8.44448e-08 1.00187 0
11195 1 7.27344 -6.74486 0.00201994 1.77081e-05 -1.17568e-06 5.76354e-08 1.00176 0
12589 1 7.4249 -6.56451 0.004115 0.000149422 -2.26013e-06 4.07158e-09 1.00169 0
11207 1 7.59417 -6.58386 0.00375419 0.000120656 -2.07162e-06 3.08368e-08 1.00167 0
10864 1 7.48777 -6.77354 0.00168086 -4.72975e-06 -1.14969e-06 1.10248e-07 1.00176 0
10527 1 7.71215 -6.7056 0.00229524 2.62288e-05 -1.32797e-06 6.98921e-08 1.00167 0
11534 1 7.98825 -6.55605 0.00385838 0.000115189 -1.73805e-06 -2.32656e-09 1.00162 0
10538 1 7.88321 -6.73919 0.00188174 4.89286e-06 -1.06804e-06 6.46415e-08 1.00168 0
10178 1 8.07543 -6.711 0.00210818 1.97517e-05 -1.00366e-06 4.3198e-08 1.00164 0
10185 1 8.2477 -6.67223 0.00247223 2.8816e-05 -1.07029e-06 4.63775e-08 1.00156 0
3116 1 8.39099 -6.763 0.00156543 -3.99083e-06 -6.80473e-07 5.01704e-08 1.00164 0
11550 1 8.49648 -6.5207 0.0039795 0.00011519 -1.22096e-06 -5.61805e-09 1.00159 0
3109 1 8.6179 -6.61675 0.00291415 6.77843e-05 -9.11972e-07 1.65247e-08 1.00159 0
3119 1 8.65058 -6.76968 0.00144348 -9.73708e-07 -5.06001e-07 5.35869e-08 1.00164 0
3113 1 8.87153 -6.62891 0.0026971 6.09821e-05 -7.93709e-07 4.09036e-08 1.00153 0
3123 1 8.92895 -6.77804 0.00134738 3.09248e-06 -4.37586e-07 6.10566e-08 1.00158 0
3117 1 9.13575 -6.58872 0.00303463 5.90809e-05 -7.9643e-07 7.03484e-08 1.0015 0
3124 1 9.16799 -6.74095 0.00158568 1.11255e-05 -4.61577e-07 7.1998e-08 1.00153 0
3121 1 9.40803 -6.56435 0.00319464 5.97865e-05 -8.05592e-07 1.20087e-07 1.00147 0
3125 1 9.36042 -6.7399 0.00155589 -5.19636e-06 -4.74567e-07 4.76036e-08 1.00152 0
10521 1 9.62697 -6.54627 0.00330901 5.49734e-05 -8.30417e-07 1.52169e-07 1.00144 0
3126 1 9.55387 -6.72477 0.00166501 -1.62458e-05 -5.09944e-07 6.78128e-08 1.0015 0
3127 1 9.74145 -6.72801 0.00161258 -2.23101e-05 -5.04664e-07 7.70885e-08 1.00148 0
10174 1 9.81982 -6.5464 0.00326868 4.19657e-05 -8.35629e-07 1.62897e-07 1.00142 0
3105 1 10.0035 -6.54539 0.00324634 2.59512e-05 -8.59166e-07 1.73698e-07 1.00139 0
3128 1 9.93039 -6.74061 0.00148941 -2.25243e-05 -4.75117e-07 7.82259e-08 1.00146 0
3129 1 10.1243 -6.68371 0.00197254 -1.54402e-05 -6.15198e-07 1.14348e-07 1.00137 0
3131 1 10.2704 -6.76794 0.00128293 -2.03182e-05 -4.34424e-07 7.98642e-08 1.00141 0
3130 1 10.4552 -6.69661 0.0018419 1.10852e-06 -5.74935e-07 1.07681e-07 1.0014 0
3114 1 10.3766 -6.53534 0.00328945 1.91785e-05 -8.89572e-07 1.99604e-07 1.00137 0
3132 1 10.6315 -6.68194 0.00194764 -1.77848e-05 -6.63974e-07 1.35665e-07 1.00132 0
3134 1 10.7727 -6.7685 0.00126837 -2.91239e-05 -4.92131e-07 1.06077e-07 1.00138 0
3133 1 10.9542 -6.62269 0.00245066 1.89913e-05 -7.94925e-07 1.92508e-07 1.0013 0
14673 1 0.420136 -6.35665 0.02 0 0 0 1 1
14674 1 0.432625 -6.15464 0.02 0 0 0 1 1
14675 1 0.61181 -6.3857 0.02 0 0 0 1 1
14676 1 0.807944 -6.37232 0.02 0 0 0 1 1
14677 1 0.620521 -6.19172 0.02 0 0 0 1 1
14678 1 0.809449 -6.17392 0.02 0 0 0 1 1
14679 1 0.999222 -6.33056 0.02 0 0 0 1 1
14680 1 1.00051 -6.13692 0.02 0 0 0 1 1
14681 1 1.18848 -6.35098 0.02 0 0 0 1 1
14683 1 1.19359 -6.14675 0.02 0 0 0 1 1
14682 1 1.3768 -6.35466 0.02 0 0 0 1 1
14684 1 1.38323 -6.1549 0.02 0 0 0 1 1
14685 1 1.57027 -6.35942 0.02 0 0 0 1 1
14687 1 1.57116 -6.15108 0.02 0 0 0 1 1
14686 1 1.77314 -6.39112 0.02 0 0 0 1 1
14688 1 1.75287 -6.20108 0.02 0 0 0 1 1
14689 1 1.97674 -6.36809 0.02 0 0 0 1 1
14691 1 1.94596 -6.17154 0.02 0 0 0 1 1
14690 1 2.19037 -6.37519 0.02 0 0 0 1 1
14692 1 2.14275 -6.19546 0.02 0 0 0 1 1
14693 1 2.39695 -6.39505 0.02 0 0 0 1 1
14694 1 2.35978 -6.20974 0.02 0 0 0 1 1
14330 1 2.59777 -6.39966 0.02 0 0 0 1 1
14331 1 2.58401 -6.21768 0.02 0 0 0 1 1
14332 1 2.79952 -6.38993 0.02 0 0 0 1 1
14334 1 2.81286 -6.21074 0.02 0 0 0 1 1
14333 1 3.00794 -6.39446 0.02 0 0 0 1 1
14335 1 3.02833 -6.20884 0.02 0 0 0 1 1
14337 1 3.21879 -6.41096 0.02 0 0 0 1 1
14336 1 3.23553 -6.22944 0.02 0 0 0 1 1
14338 1 3.44101 -6.39878 0.02 0 0 0 1 1
14339 1 3.44343 -6.21988 0.02 0 0 0 1 1
14340 1 3.65845 -6.38951 0.02 0 0 0 1.00001 1
14341 1 3.65457 -6.20844 0.02 0 0 0 1.00001 1
14342 1 3.8707 -6.38875 0.02 0 0 0 1.00007 1
14343 1 3.8591 -6.20064 0.02 0 0 0 1.00005 1
14345 1 4.03843 -6.16224 0.0179585 0.00274306 1.62954e-06 1.22139e-05 1.00678 0
14344 1 4.04643 -6.34996 0.0174503 0.00312918 2.60888e-06 1.35893e-05 1.00851 0
13989 1 4.52787 -6.38622 0.0161526 0.00326451 1.26694e-05 9.00553e-06 1.00493 0
14008 1 4.39683 -6.05135 0.0190273 0.00459919 5.3572e-06 1.58381e-05 1.00487 0
14007 1 4.39184 -6.24488 0.0181586 0.0042245 9.30781e-06 1.55402e-05 1.0055 0
14346 1 4.2246 -6.30921 0.0178378 0.00414954 7.81018e-06 1.78346e-05 1.00739 0
14347 1 4.21686 -6.11388 0.0185513 0.00418605 4.04961e-06 1.74518e-05 1.00619 0
14009 1 4.5666 -6.18459 0.0179355 0.00412015 8.45171e-06 1.12177e-05 1.00464 0
14011 1 4.58299 -5.9952 0.0189053 0.0046671 5.08047e-06 1.0641e-05 1.00428 0
13990 1 4.69798 -6.33098 0.0157397 0.00303142 1.01579e-05 5.46729e-06 1.00443 0
13993 1 4.83765 -6.40954 0.0135463 0.00212431 8.80844e-06 1.30753e-06 1.00403 0