ITEM: TIMESTEP
41000
ITEM: NUMBER OF ATOMS
11866
ITEM: BOX BOUNDS ff ff pp
0.0000000000000000e+00 2.2000000000000000e+01
-1.0000000000000000e+01 1.0000000000000000e+01
-2.0000000000000000e-02 2.0000000000000000e-02
ITEM: ATOMS id type x y vx vy fx fy c_den c_phase
1501 2 2 -10 0 0 0 0 1 5
1551 2 2 -9.8 0 0 0 0 1 5
1601 2 2 -9.6 0 0 0 0 1 5
1502 2 2.2 -10 0 0 0 0 1 5
1503 2 2.4 -10 0 0 0 0 1 5
1552 2 2.2 -9.8 0 0 0 0 1 5
1553 2 2.4 -9.8 0 0 0 0 1 5
1602 2 2.2 -9.6 0 0 0 0 1 5
1603 2 2.4 -9.6 0 0 0 0 1 5
1504 2 2.6 -10 0 0 0 0 1 5
1505 2 2.8 -10 0 0 0 0 1 5
1554 2 2.6 -9.8 0 0 0 0 1 5
1555 2 2.8 -9.8 0 0 0 0 1 5
1604 2 2.6 -9.6 0 0 0 0 1 5
1605 2 2.8 -9.6 0 0 0 0 1 5
1506 2 3 -10 0 0 0 0 1 5
1507 2 3.2 -10 0 0 0 0 1 5
1556 2 3 -9.8 0 0 0 0 1 5
1557 2 3.2 -9.8 0 0 0 0 1 5
1606 2 3 -9.6 0 0 0 0 1 5
1607 2 3.2 -9.6 0 0 0 0 1 5
1508 2 3.4 -10 0 0 0 0 1 5
1509 2 3.6 -10 0 0 0 0 1 5
1558 2 3.4 -9.8 0 0 0 0 1 5
1559 2 3.6 -9.8 0 0 0 0 1 5
1608 2 3.4 -9.6 0 0 0 0 1 5
1609 2 3.6 -9.6 0 0 0 0 1 5
1510 2 3.8 -10 0 0 0 0 1 5
1560 2 3.8 -9.8 0 0 0 0 1 5
1610 2 3.8 -9.6 0 0 0 0 1 5
1511 2 4 -10 0 0 0 0 1 5
1561 2 4 -9.8 0 0 0 0 1 5
1611 2 4 -9.6 0 0 0 0 1 5
1512 2 4.2 -10 0 0 0 0 1 5
1562 2 4.2 -9.8 0 0 0 0 1 5
1612 2 4.2 -9.6 0 0 0 0 1 5
1513 2 4.4 -10 0 0 0 0 1 5
1514 2 4.6 -10 0 0 0 0 1 5
1563 2 4.4 -9.8 0 0 0 0 1 5
1564 2 4.6 -9.8 0 0 0 0 1 5
1613 2 4.4 -9.6 0 0 0 0 1 5
1614 2 4.6 -9.6 0 0 0 0 1 5
1515 2 4.8 -10 0 0 0 0 1 5
1516 2 5 -10 0 0 0 0 1 5
1565 2 4.8 -9.8 0 0 0 0 1 5
1566 2 5 -9.8 0 0 0 0 1 5
1615 2 4.8 -9.6 0 0 0 0 1 5
1616 2 5 -9.6 0 0 0 0 1 5
1517 2 5.2 -10 0 0 0 0 1 5
1518 2 5.4 -10 0 0 0 0 1 5
1567 2 5.2 -9.8 0 0 0 0 1 5
1568 2 5.4 -9.8 0 0 0 0 1 5
1617 2 5.2 -9.6 0 0 0 0 1 5
1618 2 5.4 -9.6 0 0 0 0 1 5
1519 2 5.6 -10 0 0 0 0 1 5
1520 2 5.8 -10 0 0 0 0 1 5
1569 2 5.6 -9.8 0 0 0 0 1 5
1570 2 5.8 -9.8 0 0 0 0 1 5
1619 2 5.6 -9.6 0 0 0 0 1 5
1620 2 5.8 -9.6 0 0 0 0 1 5
1521 2 6 -10 0 0 0 0 1 5
1522 2 6.2 -10 0 0 0 0 1 5
1571 2 6 -9.8 0 0 0 0 1 5
1572 2 6.2 -9.8 0 0 0 0 1 5
1621 2 6 -9.6 0 0 0 0 1 5
1622 2 6.2 -9.6 0 0 0 0 1 5
1523 2 6.4 -10 0 0 0 0 1 5
1524 2 6.6 -10 0 0 0 0 1 5
1573 2 6.4 -9.8 0 0 0 0 1 5
1574 2 6.6 -9.8 0 0 0 0 1 5
1623 2 6.4 -9.6 0 0 0 0 1 5
1624 2 6.6 -9.6 0 0 0 0 1 5
1525 2 6.8 -10 0 0 0 0 1 5
1526 2 7 -10 0 0 0 0 1 5
1575 2 6.8 -9.8 0 0 0 0 1 5
1576 2 7 -9.8 0 0 0 0 1 5
1625 2 6.8 -9.6 0 0 0 0 1 5
1626 2 7 -9.6 0 0 0 0 1 5
1527 2 7.2 -10 0 0 0 0 1 5
1577 2 7.2 -9.8 0 0 0 0 1 5
1627 2 7.2 -9.6 0 0 0 0 1 5
1528 2 7.4 -10 0 0 0 0 1 5
1529 2 7.6 -10 0 0 0 0 1 5
1578 2 7.4 -9.8 0 0 0 0 1 5
1579 2 7.6 -9.8 0 0 0 0 1 5
1628 2 7.4 -9.6 0 0 0 0 1 5
1629 2 7.6 -9.6 0 0 0 0 1 5
1530 2 7.8 -10 0 0 0 0 1 5
1531 2 8 -10 0 0 0 0 1 5
1580 2 7.8 -9.8 0 0 0 0 1 5
1581 2 8 -9.8 0 0 0 0 1 5
1630 2 7.8 -9.6 0 0 0 0 1 5
1631 2 8 -9.6 0 0 0 0 1 5
1532 2 8.2 -10 0 0 0 0 1 5
1533 2 8.4 -10 0 0 0 0 1 5
1582 2 8.2 -9.8 0 0 0 0 1 5
1583 2 8.4 -9.8 0 0 0 0 1 5
1632 2 8.2 -9.6 0 0 0 0 1 5
1633 2 8.4 -9.6 0 0 0 0 1 5
1534 2 8.6 -10 0 0 0 0 1 5
1535 2 8.8 -10 0 0 0 0 1 5
1584 2 8.6 -9.8 0 0 0 0 1 5
1585 2 8.8 -9.8 0 0 0 0 1 5
1634 2 8.6 -9.6 0 0 0 0 1 5
1635 2 8.8 -9.6 0 0 0 0 1 5
1536 2 9 -10 0 0 0 0 1 5
1537 2 9.2 -10 0 0 0 0 1 5
1586 2 9 -9.8 0 0 0 0 1 5
1587 2 9.2 -9.8 0 0 0 0 1 5
1636 2 9 -9.6 0 0 0 0 1 5
1637 2 9.2 -9.6 0 0 0 0 1 5
1538 2 9.4 -10 0 0 0 0 1 5
1539 2 9.6 -10 0 0 0 0 1 5
1588 2 9.4 -9.8 0 0 0 0 1 5
1589 2 9.6 -9.8 0 0 0 0 1 5
1638 2 9.4 -9.6 0 0 0 0 1 5
1639 2 9.6 -9.6 0 0 0 0 1 5
1540 2 9.8 -10 0 0 0 0 1 5
1590 2 9.8 -9.8 0 0 0 0 1 5
1640 2 9.8 -9.6 0 0 0 0 1 5
1541 2 10 -10 0 0 0 0 1 5
1591 2 10 -9.8 0 0 0 0 1 5
1641 2 10 -9.6 0 0 0 0 1 5
1542 2 10.2 -10 0 0 0 0 1 5
1592 2 10.2 -9.8 0 0 0 0 1 5
1642 2 10.2 -9.6 0 0 0 0 1 5
1543 2 10.4 -10 0 0 0 0 1 5
1593 2 10.4 -9.8 0 0 0 0 1 5
1643 2 10.4 -9.6 0 0 0 0 1 5
1544 2 10.6 -10 0 0 0 0 1 5
1594 2 10.6 -9.8 0 0 0 0 1 5
1644 2 10.6 -9.6 0 0 0 0 1 5
1545 2 10.8 -10 0 0 0 0 1 5
1595 2 10.8 -9.8 0 0 0 0 1 5
1645 2 10.8 -9.6 0 0 0 0 1 5
1651 2 2 -9.4 0 0 0 0 1 5
1701 2 2 -9.2 0 0 0 0 1 5
1652 2 2.2 -9.4 0 0 0 0 1 5
1653 2 2.4 -9.4 0 0 0 0 1 5
1702 2 2.2 -9.2 0 0 0 0 1 5
1703 2 2.4 -9.2 0 0 0 0 1 5
1654 2 2.6 -9.4 0 0 0 0 1 5
1655 2 2.8 -9.4 0 0 0 0 1 5
1704 2 2.6 -9.2 0 0 0 0 1 5
1705 2 2.8 -9.2 0 0 0 0 1 5
1656 2 3 -9.4 0 0 0 0 1 5
1657 2 3.2 -9.4 0 0 0 0 1 5
1706 2 3 -9.2 0 0 0 0 1 5
1707 2 3.2 -9.2 0 0 0 0 1 5
1658 2 3.4 -9.4 0 0 0 0 1 5
1659 2 3.6 -9.4 0 0 0 0 1 5
1708 2 3.4 -9.2 0 0 0 0 1 5
1709 2 3.6 -9.2 0 0 0 0 1 5
1660 2 3.8 -9.4 0 0 0 0 1 5
1710 2 3.8 -9.2 0 0 0 0 1 5
1661 2 4 -9.4 0 0 0 0 1 5
1711 2 4 -9.2 0 0 0 0 1 5
1662 2 4.2 -9.4 0 0 0 0 1 5
1712 2 4.2 -9.2 0 0 0 0 1 5
1663 2 4.4 -9.4 0 0 0 0 1 5
1664 2 4.6 -9.4 0 0 0 0 1 5
1713 2 4.4 -9.2 0 0 0 0 1 5
1714 2 4.6 -9.2 0 0 0 0 1 5
1665 2 4.8 -9.4 0 0 0 0 1 5
1666 2 5 -9.4 0 0 0 0 1 5
1715 2 4.8 -9.2 0 0 0 0 1 5
1716 2 5 -9.2 0 0 0 0 1 5
1667 2 5.2 -9.4 0 0 0 0 1 5
1668 2 5.4 -9.4 0 0 0 0 1 5
1717 2 5.2 -9.2 0 0 0 0 1 5
1718 2 5.4 -9.2 0 0 0 0 1 5
1669 2 5.6 -9.4 0 0 0 0 1 5
1670 2 5.8 -9.4 0 0 0 0 1 5
1719 2 5.6 -9.2 0 0 0 0 1 5
1720 2 5.8 -9.2 0 0 0 0 1 5
1671 2 6 -9.4 0 0 0 0 1 5
1672 2 6.2 -9.4 0 0 0 0 1 5
1721 2 6 -9.2 0 0 0 0 1 5
1722 2 6.2 -9.2 0 0 0 0 1 5
1673 2 6.4 -9.4 0 0 0 0 1 5
1674 2 6.6 -9.4 0 0 0 0 1 5
1723 2 6.4 -9.2 0 0 0 0 1 5
1724 2 6.6 -9.2 0 0 0 0 1 5
1675 2 6.8 -9.4 0 0 0 0 1 5
1676 2 7 -9.4 0 0 0 0 1 5
1725 2 6.8 -9.2 0 0 0 0 1 5
1726 2 7 -9.2 0 0 0 0 1 5
1677 2 7.2 -9.4 0 0 0 0 1 5
1727 2 7.2 -9.2 0 0 0 0 1 5
1678 2 7.4 -9.4 0 0 0 0 1 5
1679 2 7.6 -9.4 0 0 0 0 1 5
1728 2 7.4 -9.2 0 0 0 0 1 5
1729 2 7.6 -9.2 0 0 0 0 1 5
1680 2 7.8 -9.4 0 0 0 0 1 5
1681 2 8 -9.4 0 0 0 0 1 5
1730 2 7.8 -9.2 0 0 0 0 1 5
1731 2 8 -9.2 0 0 0 0 1 5
1682 2 8.2 -9.4 0 0 0 0 1 5
1683 2 8.4 -9.4 0 0 0 0 1 5
1732 2 8.2 -9.2 0 0 0 0 1 5
1733 2 8.4 -9.2 0 0 0 0 1 5
1684 2 8.6 -9.4 0 0 0 0 1 5
1685 2 8.8 -9.4 0 0 0 0 1 5
1734 2 8.6 -9.2 0 0 0 0 1 5
1735 2 8.8 -9.2 0 0 0 0 1 5
1686 2 9 -9.4 0 0 0 0 1 5
1687 2 9.2 -9.4 0 0 0 0 1 5
1736 2 9 -9.2 0 0 0 0 1 5
1737 2 9.2 -9.2 0 0 0 0 1 5
1688 2 9.4 -9.4 0 0 0 0 1 5
1689 2 9.6 -9.4 0 0 0 0 1 5
1738 2 9.4 -9.2 0 0 0 0 1 5
1739 2 9.6 -9.2 0 0 0 0 1 5
1690 2 9.8 -9.4 0 0 0 0 1 5
1740 2 9.8 -9.2 0 0 0 0 1 5
1691 2 10 -9.4 0 0 0 0 1 5
1741 2 10 -9.2 0 0 0 0 1 5
1692 2 10.2 -9.4 0 0 0 0 1 5
1742 2 10.2 -9.2 0 0 0 0 1 5
1693 2 10.4 -9.4 0 0 0 0 1 5
1743 2 10.4 -9.2 0 0 0 0 1 5
1694 2 10.6 -9.4 0 0 0 0 1 5
1744 2 10.6 -9.2 0 0 0 0 1 5
1695 2 10.8 -9.4 0 0 0 0 1 5
1745 2 10.8 -9.2 0 0 0 0 1 5
1751 2 2 -9 0 0 0 0 1 5
1801 2 2 -8.8 0 0 0 0 1 5
1752 2 2.2 -9 0 0 0 0 1 5
1753 2 2.4 -9 0 0 0 0 1 5
1802 2 2.2 -8.8 0 0 0 0 1 5
1803 2 2.4 -8.8 0 0 0 0 1 5
1754 2 2.6 -9 0 0 0 0 1 5
1755 2 2.8 -9 0 0 0 0 1 5
1804 2 2.6 -8.8 0 0 0 0 1 5
1805 2 2.8 -8.8 0 0 0 0 1 5
1756 2 3 -9 0 0 0 0 1 5
1757 2 3.2 -9 0 0 0 0 1 5
1806 2 3 -8.8 0 0 0 0 1 5
1807 2 3.2 -8.8 0 0 0 0 1 5
1758 2 3.4 -9 0 0 0 0 1 5
1759 2 3.6 -9 0 0 0 0 1 5
1808 2 3.4 -8.8 0 0 0 0 1 5
1809 2 3.6 -8.8 0 0 0 0 1 5
1760 2 3.8 -9 0 0 0 0 1 5
1810 2 3.8 -8.8 0 0 0 0 1 5
1761 2 4 -9 0 0 0 0 1 5
1811 2 4 -8.8 0 0 0 0 1 5
1762 2 4.2 -9 0 0 0 0 1 5
1812 2 4.2 -8.8 0 0 0 0 1 5
1763 2 4.4 -9 0 0 0 0 1 5
1764 2 4.6 -9 0 0 0 0 1 5
1813 2 4.4 -8.8 0 0 0 0 1 5
1814 2 4.6 -8.8 0 0 0 0 1 5
1765 2 4.8 -9 0 0 0 0 1 5
1766 2 5 -9 0 0 0 0 1 5
1815 2 4.8 -8.8 0 0 0 0 1 5
1816 2 5 -8.8 0 0 0 0 1 5
1767 2 5.2 -9 0 0 0 0 1 5
1768 2 5.4 -9 0 0 0 0 1 5
1817 2 5.2 -8.8 0 0 0 0 1 5
1818 2 5.4 -8.8 0 0 0 0 1 5
1769 2 5.6 -9 0 0 0 0 1 5
1770 2 5.8 -9 0 0 0 0 1 5
1819 2 5.6 -8.8 0 0 0 0 1 5
1820 2 5.8 -8.8 0 0 0 0 1 5
1771 2 6 -9 0 0 0 0 1 5
1772 2 6.2 -9 0 0 0 0 1 5
1821 2 6 -8.8 0 0 0 0 1 5
1822 2 6.2 -8.8 0 0 0 0 1 5
1773 2 6.4 -9 0 0 0 0 1 5
1774 2 6.6 -9 0 0 0 0 1 5
1823 2 6.4 -8.8 0 0 0 0 1 5
1824 2 6.6 -8.8 0 0 0 0 1 5
1775 2 6.8 -9 0 0 0 0 1 5
1776 2 7 -9 0 0 0 0 1 5
1825 2 6.8 -8.8 0 0 0 0 1 5
1826 2 7 -8.8 0 0 0 0 1 5
1777 2 7.2 -9 0 0 0 0 1 5
1827 2 7.2 -8.8 0 0 0 0 1 5
1778 2 7.4 -9 0 0 0 0 1 5
1779 2 7.6 -9 0 0 0 0 1 5
1828 2 7.4 -8.8 0 0 0 0 1 5
1829 2 7.6 -8.8 0 0 0 0 1 5
1780 2 7.8 -9 0 0 0 0 1 5
1781 2 8 -9 0 0 0 0 1 5
1830 2 7.8 -8.8 0 0 0 0 1 5
1831 2 8 -8.8 0 0 0 0 1 5
1782 2 8.2 -9 0 0 0 0 1 5
1783 2 8.4 -9 0 0 0 0 1 5
1832 2 8.2 -8.8 0 0 0 0 1 5
1833 2 8.4 -8.8 0 0 0 0 1 5
1784 2 8.6 -9 0 0 0 0 1 5
1785 2 8.8 -9 0 0 0 0 1 5
1834 2 8.6 -8.8 0 0 0 0 1 5
1835 2 8.8 -8.8 0 0 0 0 1 5
1786 2 9 -9 0 0 0 0 1 5
1787 2 9.2 -9 0 0 0 0 1 5
1836 2 9 -8.8 0 0 0 0 1 5
1837 2 9.2 -8.8 0 0 0 0 1 5
1788 2 9.4 -9 0 0 0 0 1 5
1789 2 9.6 -9 0 0 0 0 1 5
1838 2 9.4 -8.8 0 0 0 0 1 5
1839 2 9.6 -8.8 0 0 0 0 1 5
1790 2 9.8 -9 0 0 0 0 1 5
1840 2 9.8 -8.8 0 0 0 0 1 5
1791 2 10 -9 0 0 0 0 1 5
1841 2 10 -8.8 0 0 0 0 1 5
1792 2 10.2 -9 0 0 0 0 1 5
1842 2 10.2 -8.8 0 0 0 0 1 5
1793 2 10.4 -9 0 0 0 0 1 5
1843 2 10.4 -8.8 0 0 0 0 1 5
1794 2 10.6 -9 0 0 0 0 1 5
1844 2 10.6 -8.8 0 0 0 0 1 5
1795 2 10.8 -9 0 0 0 0 1 5
1845 2 10.8 -8.8 0 0 0 0 1 5
1851 2 2 -8.6 0 0 0 0 1 5
1901 2 2 -8.4 0 0 0 0 1 5
1852 2 2.2 -8.6 0 0 0 0 1 5
1853 2 2.4 -8.6 0 0 0 0 1 5
1902 2 2.2 -8.4 0 0 0 0 1 5
1903 2 2.4 -8.4 0 0 0 0 1 5
1854 2 2.6 -8.6 0 0 0 0 1 5
1855 2 2.8 -8.6 0 0 0 0 1 5
1904 2 2.6 -8.4 0 0 0 0 1 5
1905 2 2.8 -8.4 0 0 0 0 1 5
1856 2 3 -8.6 0 0 0 0 1 5
1857 2 3.2 -8.6 0 0 0 0 1 5
1906 2 3 -8.4 0 0 0 0 1 5
1907 2 3.2 -8.4 0 0 0 0 1 5
1858 2 3.4 -8.6 0 0 0 0 1 5
1859 2 3.6 -8.6 0 0 0 0 1 5
1908 2 3.4 -8.4 0 0 0 0 1 5
1909 2 3.6 -8.4 0 0 0 0 1 5
1860 2 3.8 -8.6 0 0 0 0 1 5
1910 2 3.8 -8.4 0 0 0 0 1 5
1861 2 4 -8.6 0 0 0 0 1 5
1911 2 4 -8.4 0 0 0 0 1 5
1862 2 4.2 -8.6 0 0 0 0 1 5
1912 2 4.2 -8.4 0 0 0 0 1 5
1863 2 4.4 -8.6 0 0 0 0 1 5
1864 2 4.6 -8.6 0 0 0 0 1 5
1913 2 4.4 -8.4 0 0 0 0 1 5
1914 2 4.6 -8.4 0 0 0 0 1 5
1865 2 4.8 -8.6 0 0 0 0 1 5
1866 2 5 -8.6 0 0 0 0 1 5
1915 2 4.8 -8.4 0 0 0 0 1 5
1916 2 5 -8.4 0 0 0 0 1 5
1867 2 5.2 -8.6 0 0 0 0 1 5
1868 2 5.4 -8.6 0 0 0 0 1 5
1917 2 5.2 -8.4 0 0 0 0 1 5
1918 2 5.4 -8.4 0 0 0 0 1 5
1869 2 5.6 -8.6 0 0 0 0 1 5
1870 2 5.8 -8.6 0 0 0 0 1 5
1919 2 5.6 -8.4 0 0 0 0 1 5
1920 2 5.8 -8.4 0 0 0 0 1 5
1871 2 6 -8.6 0 0 0 0 1 5
1872 2 6.2 -8.6 0 0 0 0 1 5
1921 2 6 -8.4 0 0 0 0 1 5
1922 2 6.2 -8.4 0 0 0 0 1 5
1873 2 6.4 -8.6 0 0 0 0 1 5
1874 2 6.6 -8.6 0 0 0 0 1 5
1923 2 6.4 -8.4 0 0 0 0 1 5
1924 2 6.6 -8.4 0 0 0 0 1 5
1875 2 6.8 -8.6 0 0 0 0 1 5
1876 2 7 -8.6 0 0 0 0 1 5
1925 2 6.8 -8.4 0 0 0 0 1 5
1926 2 7 -8.4 0 0 0 0 1 5
1877 2 7.2 -8.6 0 0 0 0 1 5
1927 2 7.2 -8.4 0 0 0 0 1 5
1878 2 7.4 -8.6 0 0 0 0 1 5
1879 2 7.6 -8.6 0 0 0 0 1 5
1928 2 7.4 -8.4 0 0 0 0 1 5
1929 2 7.6 -8.4 0 0 0 0 1 5
1880 2 7.8 -8.6 0 0 0 0 1 5
1881 2 8 -8.6 0 0 0 0 1 5
1930 2 7.8 -8.4 0 0 0 0 1 5
1931 2 8 -8.4 0 0 0 0 1 5
1882 2 8.2 -8.6 0 0 0 0 1 5
1883 2 8.4 -8.6 0 0 0 0 1 5
1932 2 8.2 -8.4 0 0 0 0 1 5
1933 2 8.4 -8.4 0 0 0 0 1 5
1884 2 8.6 -8.6 0 0 0 0 1 5
1885 2 8.8 -8.6 0 0 0 0 1 5
1934 2 8.6 -8.4 0 0 0 0 1 5
1935 2 8.8 -8.4 0 0 0 0 1 5
1886 2 9 -8.6 0 0 0 0 1 5
1887 2 9.2 -8.6 0 0 0 0 1 5
1936 2 9 -8.4 0 0 0 0 1 5
1937 2 9.2 -8.4 0 0 0 0 1 5
1888 2 9.4 -8.6 0 0 0 0 1 5
1889 2 9.6 -8.6 0 0 0 0 1 5
1938 2 9.4 -8.4 0 0 0 0 1 5
1939 2 9.6 -8.4 0 0 0 0 1 5
1890 2 9.8 -8.6 0 0 0 0 1 5
1940 2 9.8 -8.4 0 0 0 0 1 5
1891 2 10 -8.6 0 0 0 0 1 5
1941 2 10 -8.4 0 0 0 0 1 5
1892 2 10.2 -8.6 0 0 0 0 1 5
1942 2 10.2 -8.4 0 0 0 0 1 5
1893 2 10.4 -8.6 0 0 0 0 1 5
1943 2 10.4 -8.4 0 0 0 0 1 5
1894 2 10.6 -8.6 0 0 0 0 1 5
1944 2 10.6 -8.4 0 0 0 0 1 5
1895 2 10.8 -8.6 0 0 0 0 1 5
1945 2 10.8 -8.4 0 0 0 0 1 5
1951 2 2 -8.2 0 0 0 0 1 5
2001 2 2 -8 0 0 0 0 1 5
1952 2 2.2 -8.2 0 0 0 0 1 5
1953 2 2.4 -8.2 0 0 0 0 1 5
2002 2 2.2 -8 0 0 0 0 1 5
2003 2 2.4 -8 0 0 0 0 1 5
1954 2 2.6 -8.2 0 0 0 0 1 5
1955 2 2.8 -8.2 0 0 0 0 1 5
2004 2 2.6 -8 0 0 0 0 1 5
2005 2 2.8 -8 0 0 0 0 1 5
1956 2 3 -8.2 0 0 0 0 1 5
1957 2 3.2 -8.2 0 0 0 0 1 5
2006 2 3 -8 0 0 0 0 1 5
2007 2 3.2 -8 0 0 0 0 1 5
1958 2 3.4 -8.2 0 0 0 0 1 5
1959 2 3.6 -8.2 0 0 0 0 1 5
2008 2 3.4 -8 0 0 0 0 1 5
2009 2 3.6 -8 0 0 0 0 1 5
1960 2 3.8 -8.2 0 0 0 0 1 5
2010 2 3.8 -8 0 0 0 0 1 5
1961 2 4 -8.2 0 0 0 0 1 5
2011 2 4 -8 0 0 0 0 1 5
1962 2 4.2 -8.2 0 0 0 0 1 5
2012 2 4.2 -8 0 0 0 0 1 5
1963 2 4.4 -8.2 0 0 0 0 1 5
1964 2 4.6 -8.2 0 0 0 0 1 5
2013 2 4.4 -8 0 0 0 0 1 5
2014 2 4.6 -8 0 0 0 0 1 5
1965 2 4.8 -8.2 0 0 0 0 1 5
1966 2 5 -8.2 0 0 0 0 1 5
2015 2 4.8 -8 0 0 0 0 1 5
2016 2 5 -8 0 0 0 0 1 5
1967 2 5.2 -8.2 0 0 0 0 1 5
1968 2 5.4 -8.2 0 0 0 0 1 5
2017 2 5.2 -8 0 0 0 0 1 5
2018 2 5.4 -8 0 0 0 0 1 5
1969 2 5.6 -8.2 0 0 0 0 1 5
1970 2 5.8 -8.2 0 0 0 0 1 5
2019 2 5.6 -8 0 0 0 0 1 5
2020 2 5.8 -8 0 0 0 0 1 5
1971 2 6 -8.2 0 0 0 0 1 5
1972 2 6.2 -8.2 0 0 0 0 1 5
2021 2 6 -8 0 0 0 0 1 5
2022 2 6.2 -8 0 0 0 0 1 5
1973 2 6.4 -8.2 0 0 0 0 1 5
1974 2 6.6 -8.2 0 0 0 0 1 5
2023 2 6.4 -8 0 0 0 0 1 5
2024 2 6.6 -8 0 0 0 0 1 5
1975 2 6.8 -8.2 0 0 0 0 1 5
1976 2 7 -8.2 0 0 0 0 1 5
2025 2 6.8 -8 0 0 0 0 1 5
2026 2 7 -8 0 0 0 0 1 5
1977 2 7.2 -8.2 0 0 0 0 1 5
2027 2 7.2 -8 0 0 0 0 1 5
1978 2 7.4 -8.2 0 0 0 0 1 5
1979 2 7.6 -8.2 0 0 0 0 1 5
2028 2 7.4 -8 0 0 0 0 1 5
2029 2 7.6 -8 0 0 0 0 1 5
1980 2 7.8 -8.2 0 0 0 0 1 5
1981 2 8 -8.2 0 0 0 0 1 5
2030 2 7.8 -8 0 0 0 0 1 5
2031 2 8 -8 0 0 0 0 1 5
1982 2 8.2 -8.2 0 0 0 0 1 5
1983 2 8.4 -8.2 0 0 0 0 1 5
2032 2 8.2 -8 0 0 0 0 1 5
2033 2 8.4 -8 0 0 0 0 1 5
1984 2 8.6 -8.2 0 0 0 0 1 5
1985 2 8.8 -8.2 0 0 0 0 1 5
2034 2 8.6 -8 0 0 0 0 1 5
2035 2 8.8 -8 0 0 0 0 1 5
1986 2 9 -8.2 0 0 0 0 1 5
1987 2 9.2 -8.2 0 0 0 0 1 5
2036 2 9 -8 0 0 0 0 1 5
2037 2 9.2 -8 0 0 0 0 1 5
1988 2 9.4 -8.2 0 0 0 0 1 5
1989 2 9.6 -8.2 0 0 0 0 1 5
2038 2 9.4 -8 0 0 0 0 1 5
2039 2 9.6 -8 0 0 0 0 1 5
1990 2 9.8 -8.2 0 0 0 0 1 5
2040 2 9.8 -8 0 0 0 0 1 5
1991 2 10 -8.2 0 0 0 0 1 5
2041 2 10 -8 0 0 0 0 1 5
1992 2 10.2 -8.2 0 0 0 0 1 5
2042 2 10.2 -8 0 0 0 0 1 5
1993 2 10.4 -8.2 0 0 0 0 1 5
2043 2 10.4 -8 0 0 0 0 1 5
1994 2 10.6 -8.2 0 0 0 0 1 5
2044 2 10.6 -8 0 0 0 0 1 5
1995 2 10.8 -8.2 0 0 0 0 1 5
2045 2 10.8 -8 0 0 0 0 1 5
2051 2 2 -7.8 0 0 0 0 1 5
2101 2 2 -7.6 0 0 0 0 1 5
2052 2 2.2 -7.8 0 0 0 0 1 5
2053 2 2.4 -7.8 0 0 0 0 1 5
2102 2 2.2 -7.6 0 0 0 0 1 5
2103 2 2.4 -7.6 0 0 0 0 1 5
2054 2 2.6 -7.8 0 0 0 0 1 5
2055 2 2.8 -7.8 0 0 0 0 1 5
2104 2 2.6 -7.6 0 0 0 0 1 5
2105 2 2.8 -7.6 0 0 0 0 1 5
2056 2 3 -7.8 0 0 0 0 1 5
2057 2 3.2 -7.8 0 0 0 0 1 5
2106 2 3 -7.6 0 0 0 0 1 5
2107 2 3.2 -7.6 0 0 0 0 1 5
2058 2 3.4 -7.8 0 0 0 0 1 5
2059 2 3.6 -7.8 0 0 0 0 1 5
2108 2 3.4 -7.6 0 0 0 0 1 5
2109 2 3.6 -7.6 0 0 0 0 1 5
2060 2 3.8 -7.8 0 0 0 0 1 5
2110 2 3.8 -7.6 0 0 0 0 1 5
2061 2 4 -7.8 0 0 0 0 1 5
2111 2 4 -7.6 0 0 0 0 1 5
2062 2 4.2 -7.8 0 0 0 0 1 5
2112 2 4.2 -7.6 0 0 0 0 1 5
2063 2 4.4 -7.8 0 0 0 0 1 5
2064 2 4.6 -7.8 0 0 0 0 1 5
2113 2 4.4 -7.6 0 0 0 0 1 5
2114 2 4.6 -7.6 0 0 0 0 1 5
2065 2 4.8 -7.8 0 0 0 0 1 5
2066 2 5 -7.8 0 0 0 0 1 5
2115 2 4.8 -7.6 0 0 0 0 1 5
2116 2 5 -7.6 0 0 0 0 1 5
2067 2 5.2 -7.8 0 0 0 0 1 5
2068 2 5.4 -7.8 0 0 0 0 1 5
2117 2 5.2 -7.6 0 0 0 0 1 5
2118 2 5.4 -7.6 0 0 0 0 1 5
2069 2 5.6 -7.8 0 0 0 0 1 5
2070 2 5.8 -7.8 0 0 0 0 1 5
2119 2 5.6 -7.6 0 0 0 0 1 5
2120 2 5.8 -7.6 0 0 0 0 1 5
2071 2 6 -7.8 0 0 0 0 1 5
2072 2 6.2 -7.8 0 0 0 0 1 5
2121 2 6 -7.6 0 0 0 0 1 5
2122 2 6.2 -7.6 0 0 0 0 1 5
2073 2 6.4 -7.8 0 0 0 0 1 5
2074 2 6.6 -7.8 0 0 0 0 1 5
2123 2 6.4 -7.6 0 0 0 0 1 5
2124 2 6.6 -7.6 0 0 0 0 1 5
2075 2 6.8 -7.8 0 0 0 0 1 5
2076 2 7 -7.8 0 0 0 0 1 5
2125 2 6.8 -7.6 0 0 0 0 1 5
2126 2 7 -7.6 0 0 0 0 1 5
2077 2 7.2 -7.8 0 0 0 0 1 5
2127 2 7.2 -7.6 0 0 0 0 1 5
2078 2 7.4 -7.8 0 0 0 0 1 5
2079 2 7.6 -7.8 0 0 0 0 1 5
2128 2 7.4 -7.6 0 0 0 0 1 5
2129 2 7.6 -7.6 0 0 0 0 1 5
2080 2 7.8 -7.8 0 0 0 0 1 5
2081 2 8 -7.8 0 0 0 0 1 5
2130 2 7.8 -7.6 0 0 0 0 1 5
2131 2 8 -7.6 0 0 0 0 1 5
2082 2 8.2 -7.8 0 0 0 0 1 5
2083 2 8.4 -7.8 0 0 0 0 1 5
2132 2 8.2 -7.6 0 0 0 0 1 5
2133 2 8.4 -7.6 0 0 0 0 1 5
2084 2 8.6 -7.8 0 0 0 0 1 5
2085 2 8.8 -7.8 0 0 0 0 1 5
2134 2 8.6 -7.6 0 0 0 0 1 5
2135 2 8.8 -7.6 0 0 0 0 1 5
2086 2 9 -7.8 0 0 0 0 1 5
2087 2 9.2 -7.8 0 0 0 0 1 5
2136 2 9 -7.6 0 0 0 0 1 5
2137 2 9.2 -7.6 0 0 0 0 1 5
2088 2 9.4 -7.8 0 0 0 0 1 5
2089 2 9.6 -7.8 0 0 0 0 1 5
2138 2 9.4 -7.6 0 0 0 0 1 5
2139 2 9.6 -7.6 0 0 0 0 1 5
2090 2 9.8 -7.8 0 0 0 0 1 5
2140 2 9.8 -7.6 0 0 0 0 1 5
2091 2 10 -7.8 0 0 0 0 1 5
2141 2 10 -7.6 0 0 0 0 1 5
2092 2 10.2 -7.8 0 0 0 0 1 5
2142 2 10.2 -7.6 0 0 0 0 1 5
2093 2 10.4 -7.8 0 0 0 0 1 5
2143 2 10.4 -7.6 0 0 0 0 1 5
2094 2 10.6 -7.8 0 0 0 0 1 5
2144 2 10.6 -7.6 0 0 0 0 1 5
2095 2 10.8 -7.8 0 0 0 0 1 5
2145 2 10.8 -7.6 0 0 0 0 1 5
2151 2 2 -7.4 0 0 0 0 1.00208 5
2201 2 2 -7.2 0 0 0 0 1.00025 5
2152 2 2.2 -7.4 0 0 0 0 0.990329 5
2153 2 2.4 -7.4 0 0 0 0 0.999817 5
2202 2 2.2 -7.2 0 0 0 0 0.998713 5
2203 2 2.4 -7.2 0 0 0 0 1.0008 5
2154 2 2.6 -7.4 0 0 0 0 1.00457 5
2155 2 2.8 -7.4 0 0 0 0 0.999406 5
2204 2 2.6 -7.2 0 0 0 0 1.00141 5
2205 2 2.8 -7.2 0 0 0 0 1.00108 5
2156 2 3 -7.4 0 0 0 0 0.999278 5
2157 2 3.2 -7.4 0 0 0 0 0.997513 5
2206 2 3 -7.2 0 0 0 0 0.998938 5
2207 2 3.2 -7.2 0 0 0 0 0.998553 5
2158 2 3.4 -7.4 0 0 0 0 1.00808 5
2159 2 3.6 -7.4 0 0 0 0 0.997606 5
2208 2 3.4 -7.2 0 0 0 0 1.00206 5
2209 2 3.6 -7.2 0 0 0 0 1.00035 5
2160 2 3.8 -7.4 0 0 0 0 0.996758 5
2210 2 3.8 -7.2 0 0 0 0 1.00583 5
2161 2 4 -7.4 0 0 0 0 1.03112 5
2211 2 4 -7.2 0 0 0 0 1.02243 5
2162 2 4.2 -7.4 0 0 0 0 1.03379 5
2212 2 4.2 -7.2 0 0 0 0 1.03294 5
2163 2 4.4 -7.4 0 0 0 0 1.03226 5
2164 2 4.6 -7.4 0 0 0 0 1.02793 5
2213 2 4.4 -7.2 0 0 0 0 1.03321 5
2214 2 4.6 -7.2 0 0 0 0 1.02868 5
2165 2 4.8 -7.4 0 0 0 0 1.02712 5
2166 2 5 -7.4 0 0 0 0 1.027 5
2215 2 4.8 -7.2 0 0 0 0 1.02773 5
2216 2 5 -7.2 0 0 0 0 1.02757 5
2167 2 5.2 -7.4 0 0 0 0 1.02685 5
2168 2 5.4 -7.4 0 0 0 0 1.02676 5
2217 2 5.2 -7.2 0 0 0 0 1.02752 5
2218 2 5.4 -7.2 0 0 0 0 1.02733 5
2169 2 5.6 -7.4 0 0 0 0 1.02659 5
2170 2 5.8 -7.4 0 0 0 0 1.02641 5
2219 2 5.6 -7.2 0 0 0 0 1.02706 5
2220 2 5.8 -7.2 0 0 0 0 1.02686 5
2171 2 6 -7.4 0 0 0 0 1.02627 5
2172 2 6.2 -7.4 0 0 0 0 1.02591 5
2221 2 6 -7.2 0 0 0 0 1.0267 5
2222 2 6.2 -7.2 0 0 0 0 1.02649 5
2173 2 6.4 -7.4 0 0 0 0 1.02571 5
2174 2 6.6 -7.4 0 0 0 0 1.0257 5
2223 2 6.4 -7.2 0 0 0 0 1.02632 5
2224 2 6.6 -7.2 0 0 0 0 1.02624 5
2175 2 6.8 -7.4 0 0 0 0 1.02568 5
2176 2 7 -7.4 0 0 0 0 1.02513 5
2225 2 6.8 -7.2 0 0 0 0 1.02607 5
2226 2 7 -7.2 0 0 0 0 1.02578 5
2177 2 7.2 -7.4 0 0 0 0 1.02474 5
2227 2 7.2 -7.2 0 0 0 0 1.02544 5
2178 2 7.4 -7.4 0 0 0 0 1.02466 5
2179 2 7.6 -7.4 0 0 0 0 1.02494 5
2228 2 7.4 -7.2 0 0 0 0 1.02534 5
2229 2 7.6 -7.2 0 0 0 0 1.02539 5
2180 2 7.8 -7.4 0 0 0 0 1.02491 5
2181 2 8 -7.4 0 0 0 0 1.02457 5
2230 2 7.8 -7.2 0 0 0 0 1.02531 5
2231 2 8 -7.2 0 0 0 0 1.02513 5
2182 2 8.2 -7.4 0 0 0 0 1.02453 5
2183 2 8.4 -7.4 0 0 0 0 1.02469 5
2232 2 8.2 -7.2 0 0 0 0 1.02508 5
2233 2 8.4 -7.2 0 0 0 0 1.02507 5
2184 2 8.6 -7.4 0 0 0 0 1.02473 5
2185 2 8.8 -7.4 0 0 0 0 1.02471 5
2234 2 8.6 -7.2 0 0 0 0 1.02506 5
2235 2 8.8 -7.2 0 0 0 0 1.02503 5
2186 2 9 -7.4 0 0 0 0 1.0247 5
2187 2 9.2 -7.4 0 0 0 0 1.02452 5
2236 2 9 -7.2 0 0 0 0 1.025 5
2237 2 9.2 -7.2 0 0 0 0 1.02495 5
2188 2 9.4 -7.4 0 0 0 0 1.02449 5
2189 2 9.6 -7.4 0 0 0 0 1.02442 5
2238 2 9.4 -7.2 0 0 0 0 1.02492 5
2239 2 9.6 -7.2 0 0 0 0 1.0249 5
2190 2 9.8 -7.4 0 0 0 0 1.02447 5
2240 2 9.8 -7.2 0 0 0 0 1.02494 5
2191 2 10 -7.4 0 0 0 0 1.02465 5
2241 2 10 -7.2 0 0 0 0 1.02497 5
2192 2 10.2 -7.4 0 0 0 0 1.02468 5
2242 2 10.2 -7.2 0 0 0 0 1.02498 5
2193 2 10.4 -7.4 0 0 0 0 1.02472 5
2243 2 10.4 -7.2 0 0 0 0 1.02501 5
2194 2 10.6 -7.4 0 0 0 0 1.02476 5
2244 2 10.6 -7.2 0 0 0 0 1.02503 5
2195 2 10.8 -7.4 0 0 0 0 1.02474 5
2245 2 10.8 -7.2 0 0 0 0 1.02504 5
15661 1 0.407341 -6.76311 0.02 0 0 0 1 2
15662 1 0.606879 -6.73741 0.02 0 0 0 1 2
15663 1 0.799665 -6.74525 0.02 0 0 0 1 2
15664 1 0.993053 -6.74496 0.02 0 0 0 1 2
15665 1 1.20096 -6.75843 0.02 0 -3.30846e-12 -1.38621e-12 1 2
15666 1 1.43546 -6.77278 0.02 0 -4.41025e-06 -2.74097e-06 1 2
15667 1 1.6439 -6.74284 0.02 0 -0.000431422 -0.000138851 1 2
15668 1 1.84185 -6.74114 0.02 0 -0.00239818 -0.000590769 1 2
15669 1 2.0347 -6.7467 0.02 0 -0.00372524 -0.000530712 1 2
2251 2 2 -7 0 0 0 0 1.00089 5
15670 1 2.21499 -6.7167 0.02 0 -0.00213363 -0.000310073 1 2
15671 1 2.39648 -6.74068 0.02 0 -0.00285754 -0.000431499 1 2
14982 1 2.58135 -6.73521 0.02 0 -0.00264402 -0.000461922 1 2
14985 1 2.77984 -6.75894 0.02 0 -0.0029342 -0.000455967 1 2
2252 2 2.2 -7 0 0 0 0 0.999321 5
2253 2 2.4 -7 0 0 0 0 1.00029 5
14986 1 2.98945 -6.75979 0.02 0 -0.00317456 -0.000456026 1 2
14990 1 3.18239 -6.73835 0.02 0 -0.00254627 -0.000412745 1 2
2254 2 2.6 -7 0 0 0 0 1.00065 5
2255 2 2.8 -7 0 0 0 0 1.00057 5
14991 1 3.36709 -6.7321 0.02 0 -0.0026417 -0.000462732 1 2
14992 1 3.5595 -6.76354 0.02 0 -0.00327262 -0.000295488 1 2
14994 1 3.75927 -6.7443 0.02 0 -0.00566999 -0.000166888 1 2
2256 2 3 -7 0 0 0 0 0.999527 5
2257 2 3.2 -7 0 0 0 0 0.999406 5
14995 1 3.95435 -6.73455 0.02 0 -0.0123295 0.00146073 1 2
14996 1 4.03557 -6.75215 0.00784031 0.000732882 -2.70518e-05 7.29559e-05 1.03135 0
2258 2 3.4 -7 0 0 0 0 1.00096 5
2259 2 3.6 -7 0 0 0 0 1.00128 5
2260 2 3.8 -7 0 0 0 0 1.00788 5
14997 1 4.06102 -6.72279 0.0085096 0.00123112 -8.29642e-05 0.00011942 1.03274 0
14300 1 4.20441 -6.79049 0.00394176 -0.000798609 -3.62442e-05 3.68916e-05 1.04106 0
14301 1 4.34234 -6.68517 0.0080671 0.00084221 -3.90447e-05 1.51338e-05 1.03396 0
2261 2 4 -7 0 0 0 0 1.02017 5
2262 2 4.2 -7 0 0 0 0 1.03113 5
14313 1 4.38148 -6.51029 0.0127113 0.00236864 -4.72218e-05 4.03446e-06 1.03222 0
14303 1 4.5032 -6.61005 0.0101444 0.00139575 3.82052e-06 6.21398e-06 1.02957 0
14304 1 4.49323 -6.77135 0.00565537 0.000178016 1.61427e-06 2.24056e-06 1.03057 0
14305 1 4.72222 -6.61901 0.0085302 0.00113684 -7.40257e-07 5.08242e-06 1.02836 0
14308 1 4.67082 -6.78092 0.00458936 8.69802e-05 -1.47673e-06 2.43169e-06 1.02952 0
2263 2 4.4 -7 0 0 0 0 1.03362 5
2264 2 4.6 -7 0 0 0 0 1.02947 5
14306 1 4.89375 -6.57389 0.00858674 0.00111587 -5.31629e-06 5.76055e-06 1.02835 0
13616 1 4.84744 -6.73401 0.00484487 0.000257657 -3.31238e-06 2.92364e-06 1.02871 0
13615 1 5.06592 -6.6032 0.00705234 0.000739098 -5.71064e-06 4.94208e-06 1.02806 0
13619 1 5.00189 -6.76211 0.00360491 -7.12824e-05 -4.68427e-06 2.78403e-06 1.02893 0
2265 2 4.8 -7 0 0 0 0 1.02825 5
2266 2 5 -7 0 0 0 0 1.0281 5
13622 1 5.23146 -6.62818 0.00588869 0.000472151 -6.18325e-06 4.35347e-06 1.02778 0
12903 1 5.18854 -6.79292 0.00281313 -0.000271081 -5.30539e-06 2.46178e-06 1.02897 0
12905 1 5.40692 -6.62089 0.00553933 0.000382531 -5.9271e-06 4.0145e-06 1.02749 0
12907 1 5.40702 -6.77575 0.00275331 -0.000225653 -5.15924e-06 2.33957e-06 1.02845 0
2267 2 5.2 -7 0 0 0 0 1.02807 5
2268 2 5.4 -7 0 0 0 0 1.02782 5
12210 1 5.58668 -6.76352 0.00271215 -0.000214256 -4.68359e-06 2.22507e-06 1.02811 0
11540 1 5.76388 -6.75414 0.00264125 -0.000228024 -3.81077e-06 2.04168e-06 1.02785 0
11552 1 5.93724 -6.76269 0.0023891 -0.000274206 -2.49904e-06 1.55749e-06 1.02779 0
2269 2 5.6 -7 0 0 0 0 1.02751 5
2270 2 5.8 -7 0 0 0 0 1.02728 5
10855 1 6.10783 -6.75898 0.00227084 -0.000283993 -1.04893e-06 1.29211e-06 1.02759 0
10858 1 6.27429 -6.70342 0.00283195 -0.000108921 1.41205e-06 1.53985e-06 1.02693 0
2271 2 6 -7 0 0 0 0 1.02711 5
2272 2 6.2 -7 0 0 0 0 1.02691 5
10169 1 6.40145 -6.78877 0.0017704 -0.000388394 1.02016e-06 4.70953e-07 1.02741 0
10172 1 6.57119 -6.72704 0.00228881 -0.000176987 3.93233e-06 7.61799e-07 1.02685 0
3109 1 6.73025 -6.75721 0.00185919 -0.000307182 4.35051e-06 1.39879e-07 1.02697 0
2273 2 6.4 -7 0 0 0 0 1.02675 5
2274 2 6.6 -7 0 0 0 0 1.0266 5
3113 1 6.90392 -6.76334 0.0017044 -0.000331793 5.52978e-06 -5.17456e-07 1.02688 0
3115 1 7.08808 -6.75749 0.00162906 -0.000323221 6.73968e-06 -1.27853e-06 1.02653 0
2275 2 6.8 -7 0 0 0 0 1.02642 5
2276 2 7 -7 0 0 0 0 1.02621 5
10163 1 7.21591 -6.61096 0.00297091 -8.05841e-05 1.29688e-05 -1.19061e-06 1.02579 0
3116 1 7.3815 -6.67517 0.00215919 -0.000154998 1.07776e-05 -1.94985e-06 1.02587 0
3119 1 7.29432 -6.83615 0.00115984 -0.000554517 6.08298e-06 -2.84465e-06 1.02647 0
3117 1 7.56251 -6.66027 0.00214529 -0.00011053 1.15033e-05 -2.1103e-06 1.02564 0
3121 1 7.62742 -6.79633 0.00111859 -0.000395634 7.10509e-06 -2.78891e-06 1.02632 0
2277 2 7.2 -7 0 0 0 0 1.02599 5
2278 2 7.4 -7 0 0 0 0 1.02587 5
2279 2 7.6 -7 0 0 0 0 1.0258 5
3118 1 7.84833 -6.62883 0.00224251 -8.59403e-05 1.23951e-05 -2.94605e-06 1.0254 0
3123 1 7.84718 -6.78284 0.00111033 -0.000343931 7.49251e-06 -3.01819e-06 1.02608 0
2280 2 7.8 -7 0 0 0 0 1.02569 5
2281 2 8 -7 0 0 0 0 1.02556 5
3108 1 8.03551 -6.61924 0.0022071 -8.03858e-05 1.19761e-05 -3.45192e-06 1.02526 0
3125 1 8.07656 -6.82243 0.000916274 -0.000456292 6.34875e-06 -3.43084e-06 1.02603 0
3120 1 8.19847 -6.64015 0.00192337 -8.70145e-05 1.03608e-05 -3.50561e-06 1.02524 0
3126 1 8.32832 -6.74467 0.0011643 -0.000236538 7.10944e-06 -2.99625e-06 1.02567 0
2282 2 8.2 -7 0 0 0 0 1.02546 5
2283 2 8.4 -7 0 0 0 0 1.02538 5
3127 1 8.49952 -6.76949 0.000967009 -0.000306895 6.02336e-06 -2.65264e-06 1.0258 0
3128 1 8.68296 -6.75691 0.00100426 -0.000265922 5.54356e-06 -2.53449e-06 1.0257 0
3129 1 8.8672 -6.7627 0.000942314 -0.000283235 4.5841e-06 -2.39026e-06 1.02571 0
2284 2 8.6 -7 0 0 0 0 1.02536 5
2285 2 8.8 -7 0 0 0 0 1.02532 5
3130 1 9.04659 -6.74643 0.000998605 -0.000239691 4.09392e-06 -2.36484e-06 1.02557 0
3131 1 9.22076 -6.73496 0.0010237 -0.000204035 3.52598e-06 -2.38481e-06 1.02545 0
2286 2 9 -7 0 0 0 0 1.02526 5
2287 2 9.2 -7 0 0 0 0 1.02523 5
3132 1 9.38828 -6.7811 0.000797813 -0.000331724 2.56255e-06 -2.01816e-06 1.02575 0
3133 1 9.57239 -6.69551 0.00118153 -8.58307e-05 2.50983e-06 -2.50846e-06 1.02514 0
3134 1 9.70858 -6.791 0.000720441 -0.000345378 1.61454e-06 -1.75617e-06 1.02575 0
2288 2 9.4 -7 0 0 0 0 1.02524 5
2289 2 9.6 -7 0 0 0 0 1.02524 5
3135 1 9.89196 -6.72504 0.00100115 -0.000163307 1.41095e-06 -1.96319e-06 1.02538 0
3136 1 10.0643 -6.75173 0.000848524 -0.000248783 1.09465e-06 -1.61107e-06 1.02558 0
2290 2 9.8 -7 0 0 0 0 1.02525 5
2291 2 10 -7 0 0 0 0 1.02523 5
3137 1 10.2468 -6.75737 0.000817004 -0.000257418 8.52564e-07 -1.49463e-06 1.02564 0
3138 1 10.4375 -6.75787 0.000809855 -0.000249991 6.1208e-07 -1.43613e-06 1.02565 0
2292 2 10.2 -7 0 0 0 0 1.02525 5
2293 2 10.4 -7 0 0 0 0 1.02528 5
3139 1 10.6324 -6.75384 0.000812474 -0.000236529 3.77067e-07 -1.40305e-06 1.02564 0
3140 1 10.8225 -6.75908 0.000780037 -0.000251765 2.08392e-07 -1.29483e-06 1.0257 0
687 2 9.2 9.6 0 0 0 0 1 5
2294 2 10.6 -7 0 0 0 0 1.0253 5
2295 2 10.8 -7 0 0 0 0 1.02532 5
15694 1 0.404419 -6.56957 0.02 0 0 0 1 2
15695 1 0.551704 -6.17242 0.02 0 0 0 1 2
15696 1 0.589812 -6.548 0.02 0 0 0 1 2
15698 1 0.783523 -6.55339 0.02 0 0 0 1 2
15699 1 0.597324 -6.36064 0.02 0 0 0 1 2
15700 1 0.809492 -6.36725 0.02 0 0 0 1 2
15701 1 0.757911 -6.18432 0.02 0 0 0 1 2
15697 1 0.991896 -6.56753 0.02 0 0 0 1 2
15702 1 0.979583 -6.20217 0.02 0 0 0 1 2
15704 1 1.21144 -6.57879 0.02 0 -1.11221e-13 -4.25775e-14 1 2
15705 1 1.00962 -6.38875 0.02 0 0 0 1 2
15706 1 1.202 -6.39164 0.02 0 0 0 1 2
15708 1 1.19266 -6.19888 0.02 0 0 0 1 2
15703 1 1.42352 -6.59334 0.02 0 -4.50036e-09 -4.95621e-10 1 2
15707 1 1.39674 -6.4155 0.02 0 -1.33458e-12 -1.71845e-13 1 2
15709 1 1.39583 -6.22273 0.02 0 0 0 1 2
15711 1 1.63406 -6.5619 0.02 0 -4.64863e-06 2.99082e-07 1 2
15712 1 1.59724 -6.38406 0.02 0 4.28346e-08 1.03919e-07 1 2
15714 1 1.59198 -6.19544 0.02 0 2.06146e-10 7.79269e-10 1 2
15710 1 1.83405 -6.55597 0.02 0 -2.8121e-05 6.36993e-05 1 2
15713 1 1.80898 -6.36958 0.02 0 7.66329e-06 1.65329e-05 1 2
15715 1 1.7848 -6.17896 0.02 0 1.18417e-07 3.75383e-07 1 2
15717 1 2.02347 -6.54197 0.02 0 0.000118744 0.000335764 1 2
15718 1 2.00641 -6.3409 0.02 0 3.24926e-05 6.31171e-05 1 2
14998 1 2.40213 -6.54063 0.02 0 0.000295559 0.000454797 1 2
15716 1 2.21198 -6.52686 0.02 0 0.000241133 0.000419046 1 2
15719 1 2.19654 -6.32761 0.02 0 4.90374e-05 7.93221e-05 1 2
15720 1 2.38339 -6.3356 0.02 0 6.72197e-05 0.000103745 1 2
14999 1 2.59499 -6.54936 0.02 0 0.00021797 0.000467709 1 2
15000 1 2.56719 -6.35187 0.02 0 7.71599e-05 0.000108952 1 2
15001 1 2.78697 -6.57051 0.02 0 0.000140145 0.000397249 1 2
15003 1 2.75365 -6.37687 0.02 0 0.00010395 0.000147164 1 2
15005 1 2.76239 -6.18311 0.02 0 5.93842e-06 1.15429e-05 1 2
15002 1 2.97341 -6.56758 0.02 0 9.66626e-05 0.000370911 1 2
15004 1 2.94439 -6.37271 0.02 0 9.78232e-05 0.0001404 1 2
15006 1 2.95766 -6.17218 0.02 0 4.8388e-06 1.00285e-05 1 2
15007 1 3.16001 -6.54947 0.02 0 0.000185008 0.000409019 1 2
15008 1 3.13891 -6.35872 0.02 0 8.39144e-05 0.000119035 1 2
15009 1 3.35056 -6.54057 0.02 0 0.000247732 0.00044276 1 2
15010 1 3.33537 -6.34714 0.02 0 7.27943e-05 0.000107287 1 2
15011 1 3.525 -6.34844 0.02 0 -1.62022e-05 0.000108835 1 2
15012 1 3.5351 -6.56091 0.02 0 0.00014818 0.000512377 1 2
15015 1 3.71258 -6.35112 0.02 0 -0.00122657 9.72388e-05 1 2
15013 1 3.71402 -6.55137 0.02 0 -0.00119982 0.00051402 1 2
15014 1 3.90354 -6.55287 0.02 0 -0.00477921 0.000543967 1 2
15016 1 3.90273 -6.36217 0.02 0 -0.0046539 0.000166918 1 2
15019 1 3.99957 -6.3151 0.02 0 -0.00363217 0.000665178 1.02363 2
15017 1 3.99977 -6.54703 0.02 0 -0.00398958 0.000767959 1.02595 2
14311 1 4.26757 -6.31422 0.0137063 0.00341106 -0.000180656 1.90712e-05 1.03438 0
15018 1 4.18109 -6.58917 0.010694 0.00235 -0.000271267 9.46121e-05 1.03711 0
15020 1 4.07481 -6.40375 0.0125975 0.00152041 -0.00034368 0.00016225 1.03186 0
15021 1 4.15415 -6.19616 0.0133745 0.00240647 -0.000376008 3.72747e-05 1.03349 0
14312 1 4.24336 -6.45901 0.0125119 0.00302192 -0.000203831 2.00162e-05 1.03583 0
14314 1 4.4368 -6.28411 0.015144 0.00345204 -9.11763e-06 9.09243e-06 1.03037 0
14315 1 4.34288 -6.15764 0.01507 0.00378925 -6.7922e-05 1.15199e-05 1.03168 0
14302 1 4.62905 -6.51426 0.0116128 0.00194685 3.92924e-06 7.15253e-06 1.02882 0
14316 1 4.56067 -6.16951 0.0155697 0.00379455 2.92117e-06 1.25856e-05 1.02884 0
14318 1 4.51884 -6.40613 0.0139308 0.00277548 5.55138e-06 1.02007e-05 1.02955 0
14320 1 4.73103 -6.13517 0.0151158 0.0036863 -3.15527e-06 1.31279e-05 1.02865 0
14329 1 4.664 -6.29998 0.0142873 0.00308992 2.17754e-07 1.03644e-05 1.02881 0
14319 1 4.76714 -6.41758 0.012262 0.0022466 -3.36949e-06 8.03146e-06 1.02874 0
14323 1 4.8549 -6.22687 0.0138639 0.00300837 -4.81474e-06 1.17875e-05 1.02877 0
14322 1 4.91531 -6.40799 0.0114743 0.00192844 -5.8232e-06 8.51927e-06 1.02866 0